Jobname.Temp
SP        R                             STO-3G              
Number of atoms                            I                4
Charge                                     I                0
Multiplicity                               I                1
Number of electrons                        I                4
Number of alpha electrons                  I                2
Number of beta electrons                   I                2
Atomic numbers                             I   N=           4
           1           1           1           1
Current cartesian coordinates              R   N=          12
  2.12594189E+00 -1.41729459E+00 -2.60352793E-16  2.12594189E+00  1.41729459E+00
  2.84826977E-17 -2.12594189E+00 -1.41729459E+00 -2.84826977E-17 -2.12594189E+00
  1.41729459E+00  2.60352793E-16
Nuclear charges                            R   N=           4
  1.00000000E+00  1.00000000E+00  1.00000000E+00  1.00000000E+00
Number of basis functions                  I                4
Number of contracted shells                I                4
Number of primitive shells                 I               12
Highest angular momentum                   I                0
Largest degree of contraction              I                3
Shell types                                I   N=           4
           0           0           0           0
Number of primitives per shell             I   N=           4
           3           3           3           3
Shell to atom map                          I   N=           4
           1           2           3           4
Primitive exponents                        R   N=          12
  3.42525091E+00  6.23913730E-01  1.68855400E-01  3.42525091E+00  6.23913730E-01
  1.68855400E-01  3.42525091E+00  6.23913730E-01  1.68855400E-01  3.42525091E+00
  6.23913730E-01  1.68855400E-01
Contraction coefficients                   R   N=          12
  1.54328971E-01  5.35328142E-01  4.44634542E-01  1.54328971E-01  5.35328142E-01
  4.44634542E-01  1.54328971E-01  5.35328142E-01  4.44634542E-01  1.54328971E-01
  5.35328142E-01  4.44634542E-01
Coordinates of each shell                  R   N=          12
  2.12594189E+00 -1.41729459E+00 -2.60352793E-16  2.12594189E+00  1.41729459E+00
  2.84826977E-17 -2.12594189E+00 -1.41729459E+00 -2.84826977E-17 -2.12594189E+00
  1.41729459E+00  2.60352793E-16
Overlap Matrix                             R   N=          10
  1.00000000E+00  2.56786336E-01  1.00000000E+00  7.79736998E-02  3.34255701E-02
  1.00000000E+00  3.34255701E-02  7.79736998E-02  2.56786336E-01  1.00000000E+00
Core Hamiltonian Matrix                    R   N=          10
 -1.24879494E+00 -4.37266060E-01 -1.24879494E+00 -1.34039337E-01 -6.26826575E-02
 -1.24879494E+00 -6.26826575E-02 -1.34039337E-01 -4.37266060E-01 -1.24879494E+00
Orbital Coefficients CCMAN2 Alpha          R   N=          16
 -4.27461983E-01 -4.27461983E-01 -4.27461983E-01 -4.27461983E-01 -4.67190354E-01
 -4.67190354E-01  4.67190354E-01  4.67190354E-01  5.98184760E-01 -5.98184760E-01
 -5.98184760E-01  5.98184760E-01 -5.63342540E-01  5.63342540E-01 -5.63342540E-01
  5.63342540E-01
Orbital Coefficients CCMAN2 Beta           R   N=          16
 -4.67190354E-01 -4.67190354E-01  4.67190354E-01  4.67190354E-01  5.98184760E-01
 -5.98184760E-01 -5.98184760E-01  5.98184760E-01 -5.63342540E-01  5.63342540E-01
 -5.63342540E-01  5.63342540E-01 -4.27461983E-01 -4.27461983E-01 -4.27461983E-01
 -4.27461983E-01
EOMEE transition Ag Excitation Energies    R   N=           1
  2.00856382E-01
Number of Active Occ                       I                4
Number of Active Vir                       I                4
Alpha Amplitudes                           R   N=           0
Alpha J Indexes                            I   N=           2
           0           0
Alpha I Indexes                            I   N=           0
EOMEE transition B1g Excitation Energies   R   N=           1
  4.74568033E-01
Number of Active Occ                       I                4
Number of Active Vir                       I                4
Alpha Amplitudes                           R   N=           2
 -7.06824511E-01 -7.06824511E-01
Alpha J Indexes                            I   N=           2
           0           2
Alpha I Indexes                            I   N=           2
           5          15
EOMEE transition B2u Excitation Energies   R   N=           1
  5.44372968E-01
Number of Active Occ                       I                4
Number of Active Vir                       I                4
Alpha Amplitudes                           R   N=           4
 -5.26239146E-01 -4.72305368E-01 -5.26239146E-01 -4.72305368E-01
Alpha J Indexes                            I   N=           2
           0           4
Alpha I Indexes                            I   N=           4
           1           4          11          14
EOMEE transition B3u Excitation Energies   R   N=           1
  6.56099418E-01
Number of Active Occ                       I                4
Number of Active Vir                       I                4
Alpha Amplitudes                           R   N=           0
Alpha J Indexes                            I   N=           2
           0           0
Alpha I Indexes                            I   N=           0
EOMEE transition Ag Excitation Energies    R   N=           1
  6.75343836E-01
Number of Active Occ                       I                4
Number of Active Vir                       I                4
Alpha Amplitudes                           R   N=           0
Alpha J Indexes                            I   N=           2
           0           0
Alpha I Indexes                            I   N=           0
EOMEE transition B1g Excitation Energies   R   N=           1
  9.33764582E-02
Number of Active Occ                       I                4
Number of Active Vir                       I                4
Alpha Amplitudes                           R   N=           4
  4.06611773E-01 -5.78503989E-01 -4.06611773E-01  5.78503989E-01
Alpha J Indexes                            I   N=           2
           0           4
Alpha I Indexes                            I   N=           4
           0           5          10          15
EOMEE transition B2u Excitation Energies   R   N=           1
  1.09802334E-01
Number of Active Occ                       I                4
Number of Active Vir                       I                4
Alpha Amplitudes                           R   N=           4
  4.91086208E-01 -5.08757640E-01 -4.91086208E-01  5.08757640E-01
Alpha J Indexes                            I   N=           2
           0           4
Alpha I Indexes                            I   N=           4
           1           4          11          14
EOMEE transition B3u Excitation Energies   R   N=           1
  2.05477990E-01
Number of Active Occ                       I                4
Number of Active Vir                       I                4
Alpha Amplitudes                           R   N=           0
Alpha J Indexes                            I   N=           2
           0           0
Alpha I Indexes                            I   N=           0
Number of independent functions            I                4
Alpha MO coefficients                      R   N=          16
 -4.27461983E-01 -4.27461983E-01 -4.27461983E-01 -4.27461983E-01 -4.67190354E-01
 -4.67190354E-01  4.67190354E-01  4.67190354E-01 -5.63342540E-01  5.63342540E-01
 -5.63342540E-01  5.63342540E-01  5.98184760E-01 -5.98184760E-01 -5.98184760E-01
  5.98184760E-01
Alpha Orbital Energies                     R   N=           4
 -3.92432166E-01 -3.09065827E-01  1.91561159E-01  2.65166724E-01
Total SCF Density                          R   N=          10
  8.71732666E-01  5.20165419E-01  8.71732666E-01 -4.47227868E-02 -5.43547135E-02
  8.71732666E-01 -5.43547135E-02 -4.47227868E-02  5.20165419E-01  8.71732666E-01
Pure Switching                             I                1
Dipole_Data                                R   N=           3
 -1.69314316E-15  5.70271375E-15  5.63929957E-31
Quadrupole_Data                            R   N=           6
 -3.78524532E+00  1.11834987E-14 -2.52503989E+00  6.01510621E-18  1.17171538E-16
 -3.67494419E+00
Octapole_Data                              R   N=          10
 -6.32171167E-16  7.13506175E-15 -4.74128375E-16  5.78335607E-15  7.72036083E-31
 -3.70665051E-31  3.68471767E-31 -3.16085583E-16  9.80384944E-16  3.24606081E-31
Hexadecapole_Data                          R   N=          15
 -3.13407580E+01  2.21698420E-14 -6.03734494E+00  1.39112555E-14 -1.27800890E+01
  7.75419566E-16 -3.36401699E-17  1.78605447E-16 -4.57873922E-16 -5.70720524E+00
  2.71309832E-15 -2.76219382E+00  7.67025757E-16 -5.32939256E-16 -3.05639368E+00
