Jobname.Temp
SP        R                             STO-3G              
Number of atoms                            I                4
Charge                                     I                0
Multiplicity                               I                1
Number of electrons                        I                4
Number of alpha electrons                  I                2
Number of beta electrons                   I                2
Atomic numbers                             I   N=           4
           1           1           1           1
Current cartesian coordinates              R   N=          12
  1.93696928E+00 -1.41729459E+00 -2.37210323E-16  1.93696928E+00  1.41729459E+00
  4.29398099E-17 -1.93696928E+00 -1.41729459E+00 -4.29398099E-17 -1.93696928E+00
  1.41729459E+00  2.37210323E-16
Nuclear charges                            R   N=           4
  1.00000000E+00  1.00000000E+00  1.00000000E+00  1.00000000E+00
Number of basis functions                  I                4
Number of contracted shells                I                4
Number of primitive shells                 I               12
Highest angular momentum                   I                0
Largest degree of contraction              I                3
Shell types                                I   N=           4
           0           0           0           0
Number of primitives per shell             I   N=           4
           3           3           3           3
Shell to atom map                          I   N=           4
           1           2           3           4
Primitive exponents                        R   N=          12
  3.42525091E+00  6.23913730E-01  1.68855400E-01  3.42525091E+00  6.23913730E-01
  1.68855400E-01  3.42525091E+00  6.23913730E-01  1.68855400E-01  3.42525091E+00
  6.23913730E-01  1.68855400E-01
Contraction coefficients                   R   N=          12
  1.54328971E-01  5.35328142E-01  4.44634542E-01  1.54328971E-01  5.35328142E-01
  4.44634542E-01  1.54328971E-01  5.35328142E-01  4.44634542E-01  1.54328971E-01
  5.35328142E-01  4.44634542E-01
Coordinates of each shell                  R   N=          12
  1.93696928E+00 -1.41729459E+00 -2.37210323E-16  1.93696928E+00  1.41729459E+00
  4.29398099E-17 -1.93696928E+00 -1.41729459E+00 -4.29398099E-17 -1.93696928E+00
  1.41729459E+00  2.37210323E-16
Overlap Matrix                             R   N=          10
  1.00000000E+00  2.56786336E-01  1.00000000E+00  1.09762649E-01  4.59053963E-02
  1.00000000E+00  4.59053963E-02  1.09762649E-01  2.56786336E-01  1.00000000E+00
Core Hamiltonian Matrix                    R   N=          10
 -1.28431901E+00 -4.47009460E-01 -1.28431901E+00 -1.92486355E-01 -8.77880250E-02
 -1.28431901E+00 -8.77880250E-02 -1.92486355E-01 -4.47009460E-01 -1.28431901E+00
Orbital Coefficients CCMAN2 Alpha          R   N=          16
 -4.20709956E-01 -4.20709956E-01 -4.20709956E-01 -4.20709956E-01 -4.76489150E-01
 -4.76489150E-01  4.76489150E-01  4.76489150E-01  6.06626203E-01 -6.06626203E-01
 -6.06626203E-01  6.06626203E-01 -5.56562775E-01  5.56562775E-01 -5.56562775E-01
  5.56562775E-01
Orbital Coefficients CCMAN2 Beta           R   N=          16
 -4.76489150E-01 -4.76489150E-01  4.76489150E-01  4.76489150E-01  6.06626203E-01
 -6.06626203E-01 -6.06626203E-01  6.06626203E-01 -5.56562775E-01  5.56562775E-01
 -5.56562775E-01  5.56562775E-01 -4.20709956E-01 -4.20709956E-01 -4.20709956E-01
 -4.20709956E-01
EOMEE transition Ag Excitation Energies    R   N=           1
  1.87481832E-01
Number of Active Occ                       I                4
Number of Active Vir                       I                4
Alpha Amplitudes                           R   N=           0
Alpha J Indexes                            I   N=           2
           0           0
Alpha I Indexes                            I   N=           0
EOMEE transition B1g Excitation Energies   R   N=           1
  4.38434161E-01
Number of Active Occ                       I                4
Number of Active Vir                       I                4
Alpha Amplitudes                           R   N=           2
 -7.06115036E-01 -7.06115036E-01
Alpha J Indexes                            I   N=           2
           0           2
Alpha I Indexes                            I   N=           2
           5          15
EOMEE transition B2u Excitation Energies   R   N=           1
  5.30935337E-01
Number of Active Occ                       I                4
Number of Active Vir                       I                4
Alpha Amplitudes                           R   N=           4
 -5.27044679E-01 -4.71406307E-01 -5.27044679E-01 -4.71406307E-01
Alpha J Indexes                            I   N=           2
           0           4
Alpha I Indexes                            I   N=           4
           1           4          11          14
EOMEE transition B3u Excitation Energies   R   N=           1
  6.31058050E-01
Number of Active Occ                       I                4
Number of Active Vir                       I                4
Alpha Amplitudes                           R   N=           0
Alpha J Indexes                            I   N=           2
           0           0
Alpha I Indexes                            I   N=           0
EOMEE transition Ag Excitation Energies    R   N=           1
  6.77131344E-01
Number of Active Occ                       I                4
Number of Active Vir                       I                4
Alpha Amplitudes                           R   N=           0
Alpha J Indexes                            I   N=           2
           0           0
Alpha I Indexes                            I   N=           0
EOMEE transition B1g Excitation Energies   R   N=           1
  8.01725680E-02
Number of Active Occ                       I                4
Number of Active Vir                       I                4
Alpha Amplitudes                           R   N=           4
  3.68388198E-01 -6.03564525E-01 -3.68388198E-01  6.03564525E-01
Alpha J Indexes                            I   N=           2
           0           4
Alpha I Indexes                            I   N=           4
           0           5          10          15
EOMEE transition B2u Excitation Energies   R   N=           1
  1.13094636E-01
Number of Active Occ                       I                4
Number of Active Vir                       I                4
Alpha Amplitudes                           R   N=           4
  4.90116783E-01 -5.09691612E-01 -4.90116783E-01  5.09691612E-01
Alpha J Indexes                            I   N=           2
           0           4
Alpha I Indexes                            I   N=           4
           1           4          11          14
EOMEE transition B3u Excitation Energies   R   N=           1
  1.96783268E-01
Number of Active Occ                       I                4
Number of Active Vir                       I                4
Alpha Amplitudes                           R   N=           0
Alpha J Indexes                            I   N=           2
           0           0
Alpha I Indexes                            I   N=           0
Number of independent functions            I                4
Alpha MO coefficients                      R   N=          16
 -4.20709956E-01 -4.20709956E-01 -4.20709956E-01 -4.20709956E-01 -4.76489150E-01
 -4.76489150E-01  4.76489150E-01  4.76489150E-01 -5.56562775E-01  5.56562775E-01
 -5.56562775E-01  5.56562775E-01  6.06626203E-01 -6.06626203E-01 -6.06626203E-01
  6.06626203E-01
Alpha Orbital Energies                     R   N=           4
 -4.05538225E-01 -2.91680003E-01  1.78269446E-01  2.81942980E-01
Total SCF Density                          R   N=          10
  8.77987702E-01  5.13024234E-01  8.77987702E-01 -5.58082281E-02 -7.84146595E-02
  8.77987702E-01 -7.84146595E-02 -5.58082281E-02  5.13024234E-01  8.77987702E-01
Pure Switching                             I                1
Dipole_Data                                R   N=           3
 -1.96856917E-18  6.47274522E-15  5.13509137E-31
Quadrupole_Data                            R   N=           6
 -3.82864556E+00  8.20918751E-15 -2.54563947E+00  8.30129385E-18  1.10442629E-16
 -3.66310987E+00
Octapole_Data                              R   N=          10
  2.21039406E-15  7.87250656E-15 -5.53149771E-16  7.25021307E-15  6.16861217E-31
 -4.21864532E-31  4.78135983E-31 -4.06132089E-17  1.08654419E-15  2.85126963E-31
Hexadecapole_Data                          R   N=          15
 -2.66510881E+01  1.18224143E-14 -5.55011115E+00  7.87352594E-15 -1.28041984E+01
  5.96882586E-16 -6.26484427E-17  1.39918253E-16 -4.47136330E-16 -4.91622746E+00
  1.47026487E-15 -2.76000828E+00  5.87186048E-16 -5.17921948E-16 -3.03963485E+00
