                  Welcome to Q-Chem
     A Quantum Leap Into The Future Of Chemistry


 Q-Chem 5.4 (devel), Q-Chem, Inc., Pleasanton, CA (2021)

 E. Epifanovsky,  A. T. B. Gilbert,  Xintian Feng,  Joonho Lee,  Yuezhi Mao,  
 N. Mardirossian,  P. Pokhilko,  A. White,  M. Wormit,  M. P. Coons,  
 A. L. Dempwolff,  Zhengting Gan,  D. Hait,  P. R. Horn,  L. D. Jacobson,  
 I. Kaliman,  J. Kussmann,  A. W. Lange,  Ka Un Lao,  D. S. Levine,  Jie Liu,  
 S. C. McKenzie,  A. F. Morrison,  K. Nanda,  F. Plasser,  D. R. Rehn,  
 M. L. Vidal,  Zhi-Qiang You,  Ying Zhu,  B. Alam,  B. Albrecht,  
 A. Aldossary,  E. Alguire,  J. H. Andersen,  D. Barton,  K. Begam,  A. Behn,  
 Y. A. Bernard,  E. J. Berquist,  H. Burton,  A. Carreras,  K. Carter-Fenk,  
 R. Chakraborty,  A. D. Chien,  K. D. Closser,  V. Cofer-Shabica,  
 S. Dasgupta,  Jia Deng,  M. de Wergifosse,  M. Diedenhofen,  Hainam Do,  
 S. Ehlert,  Po-Tung Fang,  S. Fatehi,  Qingguo Feng,  T. Friedhoff,  
 J. Gayvert,  Qinghui Ge,  G. Gidofalvi,  M. Goldey,  J. Gomes,  
 C. Gonzalez-Espinoza,  S. Gulania,  A. Gunina,  M. W. D. Hanson-Heine,  
 P. H. P. Harbach,  A. W. Hauser,  M. F. Herbst,  M. Hernandez Vera,  
 M. Hodecker,  Z. C. Holden,  S. Houck,  Xunkun Huang,  Kerwin Hui,  
 B. C. Huynh,  M. Ivanov,  Hyunjun Ji,  Hanjie Jiang,  B. Kaduk,  S. Kaehler,  
 K. Khistyaev,  Jaehoon Kim,  P. Klunzinger,  Z. Koczor-Benda,  
 Joong Hoon Koh,  D. Kosenkov,  L. Koulias,  T. Kowalczyk,  C. M. Krauter,  
 K. Kue,  A. Kunitsa,  T. Kus,  A. Landau,  K. V. Lawler,  D. Lefrancois,  
 S. Lehtola,  Rain Li,  Yi-Pei Li,  Jiashu Liang,  M. Liebenthal,  
 Hung-Hsuan Lin,  You-Sheng Lin,  Fenglai Liu,  Kuan-Yu Liu,  
 M. Loipersberger,  A. Luenser,  A. Manjanath,  P. Manohar,  E. Mansoor,  
 S. F. Manzer,  Shan-Ping Mao,  A. V. Marenich,  T. Markovich,  S. Mason,  
 S. A. Maurer,  P. F. McLaughlin,  M. F. S. J. Menger,  J.-M. Mewes,  
 S. A. Mewes,  P. Morgante,  J. W. Mullinax,  K. J. Oosterbaan,  G. Paran,  
 Alexander C. Paul,  Suranjan K. Paul,  F. Pavosevic,  Zheng Pei,  S. Prager,  
 E. I. Proynov,  E. Ramos,  B. Rana,  A. E. Rask,  A. Rettig,  R. M. Richard,  
 F. Rob,  E. Rossomme,  T. Scheele,  M. Scheurer,  M. Schneider,  
 N. Sergueev,  S. M. Sharada,  W. Skomorowski,  D. W. Small,  C. J. Stein,  
 Yu-Chuan Su,  E. J. Sundstrom,  Zhen Tao,  J. Thirman,  T. Tsuchimochi,  
 N. M. Tubman,  S. P. Veccham,  O. Vydrov,  J. Wenzel,  J. Witte,  A. Yamada,  
 Kun Yao,  S. Yeganeh,  S. R. Yost,  A. Zech,  Igor Ying Zhang,  Xing Zhang,  
 Yu Zhang,  D. Zuev,  A. Aspuru-Guzik,  A. T. Bell,  N. A. Besley,  
 K. B. Bravaya,  B. R. Brooks,  D. Casanova,  Jeng-Da Chai,  S. Coriani,  
 C. J. Cramer,  A. E. DePrince, III,  R. A. DiStasio Jr.,  A. Dreuw,  
 B. D. Dunietz,  T. R. Furlani,  W. A. Goddard III,  S. Grimme,  
 S. Hammes-Schiffer,  T. Head-Gordon,  W. J. Hehre,  Chao-Ping Hsu,  
 T.-C. Jagau,  Yousung Jung,  A. Klamt,  Jing Kong,  D. S. Lambrecht,  
 WanZhen Liang,  N. J. Mayhall,  C. W. McCurdy,  J. B. Neaton,  
 C. Ochsenfeld,  J. A. Parkhill,  R. Peverati,  V. A. Rassolov,  Yihan Shao,  
 L. V. Slipchenko,  T. Stauch,  R. P. Steele,  J. E. Subotnik,  
 A. J. W. Thom,  A. Tkatchenko,  D. G. Truhlar,  T. Van Voorhis,  
 T. A. Wesolowski,  K. B. Whaley,  H. L. Woodcock III,  P. M. Zimmerman,  
 S. Faraji,  P. M. W. Gill,  M. Head-Gordon,  J. M. Herbert,  A. I. Krylov

 Additional authors for Version 5.4.1: 
 S. Kotaru,  Shaozhi Li,  Xiangyuan Li,  F. Matz,  A. Molle,  Haisheng Ren,  
 Yingli Su,  Hung-Yi Tsai,  C. Utku,  Fang Wang

 Contributors to earlier versions of Q-Chem not listed above: 
 R. D. Adamson,  B. Austin,  R. Baer,  J. Baker,  G. J. O. Beran,  
 K. Brandhorst,  S. T. Brown,  E. F. C. Byrd,  A. K. Chakraborty,  
 G. K. L. Chan,  Chun-Min Chang,  Yunqing Chen,  C.-L. Cheng,  
 Siu Hung Chien,  D. M. Chipman,  D. L. Crittenden,  H. Dachsel,  
 R. J. Doerksen,  A. D. Dutoi,  R. G. Edgar,  J. Fosso-Tande,  
 L. Fusti-Molnar,  D. Ghosh,  A. Ghysels,  A. Golubeva-Zadorozhnaya,  
 J. Gonthier,  M. S. Gordon,  S. R. Gwaltney,  G. Hawkins,  J. E. Herr,  
 A. Heyden,  S. Hirata,  E. G. Hohenstein,  G. Kedziora,  F. J. Keil,  
 C. Kelley,  Jihan Kim,  R. A. King,  R. Z. Khaliullin,  P. P. Korambath,  
 W. Kurlancheek,  A. Laurent,  A. M. Lee,  M. S. Lee,  S. V. Levchenko,  
 Ching Yeh Lin,  D. Liotard,  E. Livshits,  R. C. Lochan,  I. Lotan,  
 L. A. Martinez-Martinez,  P. E. Maslen,  N. Nair,  D. P. O'Neill,  
 D. Neuhauser,  E. Neuscamman,  C. M. Oana,  R. Olivares-Amaya,  R. Olson,  
 T. M. Perrine,  B. Peters,  P. A. Pieniazek,  A. Prociuk,  Y. M. Rhee,  
 J. Ritchie,  M. A. Rohrdanz,  E. Rosta,  N. J. Russ,  H. F. Schaefer III,  
 M. W. Schmidt,  N. E. Schultz,  S. Sharma,  N. Shenvi,  C. D. Sherrill,  
 A. C. Simmonett,  A. Sodt,  T. Stein,  D. Stuck,  K. S. Thanthiriwatte,  
 V. Vanovschi,  L. Vogt,  Tao Wang,  A. Warshel,  M. A. Watson,  
 C. F. Williams,  Q. Wu,  X. Xu,  Jun Yang,  W. Zhang,  Yan Zhao

 Please cite Q-Chem as follows:
 Y. Shao et al., Mol. Phys. 113, 184-215 (2015)
 DOI: 10.1080/00268976.2014.952696

 Q-Chem 5.4.1 for Intel X86 EM64T Linux

 Parts of Q-Chem use Armadillo 9.900.5 (Nocturnal Misbehaviour).
 http://arma.sourceforge.net/

 Q-Chem begins on Thu Aug 11 21:22:43 2022  

orc29
 Host: 0

     Scratch files written to /scratch/yongbin/qchem11151//
 Processing $rem in /home/users/yongbin/software/yongbin_quantum/config/preferences:
 Processing $rem in /home/users/yongbin/.qchemrc:

 Checking the input file for inconsistencies... 	...done.

--------------------------------------------------------------
User input:
--------------------------------------------------------------
$comment
Hydrogen molecule
$end

$molecule
0 1
 H         0.0000000000    0.0000000000    0.0000000000
 H         0.0000000000    0.0000000000    1.5000000000
 H         2.0500000000    0.0000000000    0.0000000000
 H         2.0500000000    0.0000000000    1.5000000000
$end

$rem
   n_frozen_core = 0
   print_qis = true
   BASIS                = sto-3g
!   SYMMETRY             = true
!   CC_SYMMETRY          = false
   METHOD               = eom-ccsd
   EE_SINGLETS          = [1,1,1,1,1,1,1,1] ! Compute two EOM-EE singlet excited states
   EE_TRIPLETS          = [1,1,1,1,1,1,1,1] ! Compute two EOM-EE triplet excited states
   CC_REF_PROP          = true ! Compute ground state properties
   CC_EOM_PROP          = true ! Compute excited state properties
!   CC_OSFNO             = true
   GUI                  = 2
$end
--------------------------------------------------------------
 ----------------------------------------------------------------
             Standard Nuclear Orientation (Angstroms)
    I     Atom           X                Y                Z
 ----------------------------------------------------------------
    1      H       1.0250000000    -0.7500000000    -0.0000000000
    2      H       1.0250000000     0.7500000000     0.0000000000
    3      H      -1.0250000000    -0.7500000000    -0.0000000000
    4      H      -1.0250000000     0.7500000000     0.0000000000
 ----------------------------------------------------------------
 Molecular Point Group                 D2h   NOp =  8
 Largest Abelian Subgroup              D2h   NOp =  8
 Nuclear Repulsion Energy =           1.63848597 hartrees
 There are        2 alpha and        2 beta electrons
 Requested basis set is STO-3G
 There are 4 shells and 4 basis functions
 Total memory of 2000 MB is distributed as follows: 
   MEM_STATIC is set to 192 MB
   QALLOC/CCMAN JOB total memory use is  1808 MB
 Warning: actual memory use might exceed 2000 MB

 Total QAlloc Memory Limit   2000 MB
 Mega-Array Size       188 MB
 MEM_STATIC part       192 MB

                       Distance Matrix (Angstroms)
             H (  1)   H (  2)   H (  3)
   H (  2)  1.500000
   H (  3)  2.050000  2.540177
   H (  4)  2.540177  2.050000  1.500000

 A cutoff of  1.0D-14 yielded     10 shell pairs
 There are        10 function pairs
 Smallest overlap matrix eigenvalue = 6.79E-01

 Scale SEOQF with 1.000000e+00/1.000000e+00/1.000000e+00

 Standard Electronic Orientation quadrupole field applied
 Nucleus-field energy     =     0.0000000031 hartrees
 Guess from superposition of atomic densities
 Warning:  Energy on first SCF cycle will be non-variational
 SAD guess density has 4.000000 electrons

 -----------------------------------------------------------------------
  General SCF calculation program by
  Eric Jon Sundstrom, Paul Horn, Yuezhi Mao, Dmitri Zuev, Alec White,
  David Stuck, Shaama M.S., Shane Yost, Joonho Lee, David Small,
  Daniel Levine, Susi Lehtola, Hugh Burton, Evgeny Epifanovsky,
  Bang C. Huynh
 -----------------------------------------------------------------------
 Hartree-Fock
 using 16 threads for integral computing
 -------------------------------------------------------
 OpenMP Integral computing Module                
 Release: version 1.0, May 2013, Q-Chem Inc. Pittsburgh 
 -------------------------------------------------------
 A restricted SCF calculation will be
 performed using DIIS
 SCF converges when DIIS error is below 1.0e-08
 ---------------------------------------
  Cycle       Energy         DIIS error
 ---------------------------------------
    1      -1.1458732888      4.64e-17  
    2      -1.8007222310      1.82e-16  Convergence criterion met
 ---------------------------------------
 SCF time:   CPU 0.23s  wall 0.00s 
 SCF   energy in the final basis set =       -1.8007222310
 Total energy in the final basis set =       -1.8007222310


 ------------------------------------------------------------------------------

   CCMAN2: suite of methods based on coupled cluster
           and equation of motion theories.

   Components:
   * libvmm-1.3-trunk
     by Evgeny Epifanovsky, Ilya Kaliman.
   * libtensor-2.5-trunk
     by Evgeny Epifanovsky, Michael Wormit, Dmitry Zuev, Sam Manzer, 
        Ilya Kaliman.
   * libcc-2.5-trunk
     by Evgeny Epifanovsky, Arik Landau, Tomasz Kus, Kirill Khistyaev, 
        Dmitry Zuev, Prashant Manohar, Xintian Feng, Anna Krylov, 
        Matthew Goldey, Alec White, Thomas Jagau, Kaushik Nanda, 
        Anastasia Gunina, Alexander Kunitsa, Joonho Lee.

   CCMAN original authors:
   Anna I. Krylov, C. David Sherrill, Steven R. Gwaltney,
   Edward F. C. Byrd (2000)
   Sergey V. Levchenko, Lyudmila V. Slipchenko, Tao Wang,
   Ana-Maria C. Cristian (2003)
   Piotr A. Pieniazek, C. Melania Oana, Evgeny Epifanovsky (2007)
   Prashant Manohar (2009)

 ------------------------------------------------------------------------------


 Allocating and initializing 1808MB of RAM...
 Calculation will run on 16 cores.


 Alpha MOs, Restricted
 -- Occupied --                  
 -0.406  -0.292
  1 Ag    1 B3u                                                                
 -- Virtual --                   
  0.178   0.282
  1 B2u   1 B1g                                                                

 Beta MOs, Restricted
 -- Occupied --                  
 -0.406  -0.292
  1 Ag    1 B3u                                                                
 -- Virtual --                   
  0.178   0.282
  1 B2u   1 B1g                                                                

 Occupation and symmetry of molecular orbitals

 Point group: D2h (8 irreducible representations).

                           Ag   B1g  B2g  B3g  Au   B1u  B2u  B3u   All 
 ------------------------------------------------------------------------
 All molecular orbitals:
  - Alpha                  1    1    0    0    0    0    1    1     4   
  - Beta                   1    1    0    0    0    0    1    1     4   
 ------------------------------------------------------------------------
 Alpha orbitals:
  - Frozen occupied        0    0    0    0    0    0    0    0     0   
  - Active occupied        1    0    0    0    0    0    0    1     2   
  - Active virtual         0    1    0    0    0    0    1    0     2   
  - Frozen virtual         0    0    0    0    0    0    0    0     0   
 ------------------------------------------------------------------------
 Beta orbitals:
  - Frozen occupied        0    0    0    0    0    0    0    0     0   
  - Active occupied        1    0    0    0    0    0    0    1     2   
  - Active virtual         0    1    0    0    0    0    1    0     2   
  - Frozen virtual         0    0    0    0    0    0    0    0     0   
 ------------------------------------------------------------------------

 Import integrals:   CPU 0.00 s  wall 0.00 s

 Import integrals:   CPU 0.11 s  wall 0.04 s

 Run QIS:   CPU 0.00 s  wall 0.00 s

 MP2 amplitudes:   CPU 0.01 s  wall 0.01 s

Running a double precision version
           CCSD T amplitudes will be solved using DIIS.

           Start     Size      MaxIter   EConv     TConv     
           3         7         100       1.00e-06  1.00e-04  
 ------------------------------------------------------------------------------
           Energy (a.u.)   Ediff      Tdiff       Comment
 ------------------------------------------------------------------------------
            -1.89644133                           
     1      -1.94387229   4.74e-02   2.80e-01     
     2      -1.96588167   2.20e-02   1.57e-01     
     3      -1.97562580   9.74e-03   7.87e-02     
     4      -1.98309511   7.47e-03   5.61e-02     Switched to DIIS steps.
     5      -1.98247301   6.22e-04   2.00e-03     
     6      -1.98306041   5.87e-04   5.00e-03     
     7      -1.98311602   5.56e-05   7.90e-04     
     8      -1.98306796   4.81e-05   4.66e-04     
     9      -1.98306536   2.60e-06   2.53e-05     
    10      -1.98306235   3.01e-06   2.82e-05     
    11      -1.98306237   1.68e-08   2.19e-07     
 ------------------------------------------------------------------------------
            -1.98306237                           CCSD T converged.

End of double precision
 SCF energy                 = -1.80072223
 MP2 energy                 = -1.89644133
 CCSD correlation energy    = -0.18234014
 CCSD total energy          = -1.98306237

 CCSD  T1^2 = 0.0000  T2^2 = 0.3176  Leading amplitudes:

 Amplitude    Orbitals with energies

 Amplitude    Orbitals with energies
 -0.2774576369       1 (B3u) A     1 (B3u) B   ->    1 (B2u) A     1 (B2u) B    
                    -0.2917       -0.2917            0.1783        0.1783       
  0.2774576369       1 (B3u) A     1 (B3u) B   ->    1 (B2u) B     1 (B2u) A    
                    -0.2917       -0.2917            0.1783        0.1783       
  0.2774576369       1 (B3u) B     1 (B3u) A   ->    1 (B2u) A     1 (B2u) B    
                    -0.2917       -0.2917            0.1783        0.1783       
 -0.2774576369       1 (B3u) B     1 (B3u) A   ->    1 (B2u) B     1 (B2u) A    
                    -0.2917       -0.2917            0.1783        0.1783       
  0.2029856272       1 (Ag) A      1 (B3u) B   ->    1 (B2u) A     1 (B1g) B    
                    -0.4055       -0.2917            0.1783        0.2819       
 -0.2029856272       1 (Ag) A      1 (B3u) B   ->    1 (B1g) B     1 (B2u) A    
                    -0.4055       -0.2917            0.2819        0.1783       
  0.2029856272       1 (B3u) A     1 (Ag) B    ->    1 (B1g) A     1 (B2u) B    
                    -0.2917       -0.4055            0.2819        0.1783       
 -0.2029856272       1 (B3u) A     1 (Ag) B    ->    1 (B2u) B     1 (B1g) A    
                    -0.2917       -0.4055            0.1783        0.2819       
 -0.2029856272       1 (Ag) B      1 (B3u) A   ->    1 (B1g) A     1 (B2u) B    
                    -0.4055       -0.2917            0.2819        0.1783       
  0.2029856272       1 (Ag) B      1 (B3u) A   ->    1 (B2u) B     1 (B1g) A    
                    -0.4055       -0.2917            0.1783        0.2819       
 -0.2029856272       1 (B3u) B     1 (Ag) A    ->    1 (B2u) A     1 (B1g) B    
                    -0.2917       -0.4055            0.1783        0.2819       
  0.2029856272       1 (B3u) B     1 (Ag) A    ->    1 (B1g) B     1 (B2u) A    
                    -0.2917       -0.4055            0.2819        0.1783       
 -0.1888918216       1 (B3u) A     1 (B3u) B   ->    1 (B1g) A     1 (B1g) B    
                    -0.2917       -0.2917            0.2819        0.2819       
  0.1888918216       1 (B3u) A     1 (B3u) B   ->    1 (B1g) B     1 (B1g) A    
                    -0.2917       -0.2917            0.2819        0.2819       
  0.1888918216       1 (B3u) B     1 (B3u) A   ->    1 (B1g) A     1 (B1g) B    
                    -0.2917       -0.2917            0.2819        0.2819       
 -0.1888918216       1 (B3u) B     1 (B3u) A   ->    1 (B1g) B     1 (B1g) A    
                    -0.2917       -0.2917            0.2819        0.2819       
  0.1847562591       1 (Ag) A      1 (B3u) B   ->    1 (B1g) A     1 (B2u) B    
                    -0.4055       -0.2917            0.2819        0.1783       
 -0.1847562591       1 (Ag) A      1 (B3u) B   ->    1 (B2u) B     1 (B1g) A    
                    -0.4055       -0.2917            0.1783        0.2819       
  0.1847562591       1 (B3u) A     1 (Ag) B    ->    1 (B2u) A     1 (B1g) B    
                    -0.2917       -0.4055            0.1783        0.2819       
 -0.1847562591       1 (B3u) A     1 (Ag) B    ->    1 (B1g) B     1 (B2u) A    
                    -0.2917       -0.4055            0.2819        0.1783       
 -0.1847562591       1 (Ag) B      1 (B3u) A   ->    1 (B2u) A     1 (B1g) B    
                    -0.4055       -0.2917            0.1783        0.2819       
  0.1847562591       1 (Ag) B      1 (B3u) A   ->    1 (B1g) B     1 (B2u) A    
                    -0.4055       -0.2917            0.2819        0.1783       
 -0.1847562591       1 (B3u) B     1 (Ag) A    ->    1 (B1g) A     1 (B2u) B    
                    -0.2917       -0.4055            0.2819        0.1783       
  0.1847562591       1 (B3u) B     1 (Ag) A    ->    1 (B2u) B     1 (B1g) A    
                    -0.2917       -0.4055            0.1783        0.2819       
 -0.1742641833       1 (Ag) A      1 (Ag) B    ->    1 (B2u) A     1 (B2u) B    
                    -0.4055       -0.4055            0.1783        0.1783       
  0.1742641833       1 (Ag) A      1 (Ag) B    ->    1 (B2u) B     1 (B2u) A    
                    -0.4055       -0.4055            0.1783        0.1783       
  0.1742641833       1 (Ag) B      1 (Ag) A    ->    1 (B2u) A     1 (B2u) B    
                    -0.4055       -0.4055            0.1783        0.1783       
 -0.1742641833       1 (Ag) B      1 (Ag) A    ->    1 (B2u) B     1 (B2u) A    
                    -0.4055       -0.4055            0.1783        0.1783       
 -0.1522980086       1 (Ag) A      1 (Ag) B    ->    1 (B1g) A     1 (B1g) B    
                    -0.4055       -0.4055            0.2819        0.2819       
  0.1522980086       1 (Ag) A      1 (Ag) B    ->    1 (B1g) B     1 (B1g) A    
                    -0.4055       -0.4055            0.2819        0.2819       
  0.1522980086       1 (Ag) B      1 (Ag) A    ->    1 (B1g) A     1 (B1g) B    
                    -0.4055       -0.4055            0.2819        0.2819       
 -0.1522980086       1 (Ag) B      1 (Ag) A    ->    1 (B1g) B     1 (B1g) A    
                    -0.4055       -0.4055            0.2819        0.2819       

 Computing CCSD intermediates for later calculations in double precision
 Finished.

Running a double precision version
           CCSD Lambda amplitudes will be solved using DIIS.
           Start     Size      MaxIter   EConv     LConv     
           3         7         100       1.00e-06  1.00e-04  
 ------------------------------------------------------------------------------
            Enorm      Ldiff       Comment
 ------------------------------------------------------------------------------
     1     1.07e-01   9.70e-02     
     2     3.98e-02   3.70e-02     
     3     1.66e-02   1.49e-02     
     4     2.39e-03   1.01e-02     Switched to DIIS steps.
     5     1.25e-03   6.54e-04     
     6     1.49e-04   8.06e-04     
     7     2.19e-05   9.12e-05     
     8     3.73e-06   6.33e-06     
     9     4.55e-16   1.06e-06     
 ------------------------------------------------------------------------------
                                   CCSD Lambda converged.

 Computing density matrices in double precision...
 Computing density matrices... Done.
 Reference state properties
 Dipole moment (a.u.): 0.000000 (X -0.000000, Y 0.000000, Z -0.000000)
 R-squared (a.u.): 30.504853 (XX 17.853904, YY 9.927516, ZZ 2.723432)
 Gauge origin (a.u.): (0.000000, 0.000000, 0.000000)
 Angular momentum (a.u.) against gauge origin: 
 (X 0.000000i, Y 0.000000i, Z 0.000000i)
 Traces of the OPDMs: Tr(AA) 2.000000, Tr(BB) 2.000000
 Density matrix was written to a file for further analysis.

 CCSD calculation:   CPU 2.37 s  wall 0.69 s

        Solving for EOMEE-CCSD Ag singlet states.

Warning! Not enough singles to form guess subspace. Doubles guess vectors will be generated.
In case of poor EOM convergence, reduce requested EE_STATES.

Running a double precision version
        EOMEE-CCSD/MP2 right amplitudes will be solved using Davidson.
        Amplitudes will be solved using standard  algorithm.
     Hard-coded thresholds: 
     LinDepThresh=1.00e-15  NormThresh=1.00e-06  ReorthogonThresh=1.00e-02

      Roots     MaxVec    MaxIter   Precond   Conv      Shift    
      1         120       60        1         1.00e-05  0.00e+00  
 ------------------------------------------------------------------------------
      Iter ConvRoots NVecs ResNorm Current eigenvalues (eV)
 ------------------------------------------------------------------------------
      0    0      1     1.40e-01   15.3504   
      1    0      2     6.93e-02   9.4917   
      2    0      3     6.96e-03   5.4650   
      3    0      4     4.28e-04   5.1349   
      4    1      5     5.38e-07   5.1016*  

     Davidson procedure converged

 EOMEE transition 1/Ag
 Total energy = -1.79558054 a.u.  Excitation energy = 5.10164011 eV.
 R0^2 = 0.0117  R1^2 = 0.0000  R2^2 = 1.0000  Res^2 = 5.38e-07
 Conv-d = yes

 Amplitude    Transitions between orbitals
 -0.6214983927       1 (B3u) A     1 (B3u) B   ->    1 (B2u) A     1 (B2u) B    
  0.6214983927       1 (B3u) A     1 (B3u) B   ->    1 (B2u) B     1 (B2u) A    
  0.6214983927       1 (B3u) B     1 (B3u) A   ->    1 (B2u) A     1 (B2u) B    
 -0.6214983927       1 (B3u) B     1 (B3u) A   ->    1 (B2u) B     1 (B2u) A    
  0.4057430259       1 (B3u) A     1 (B3u) B   ->    1 (B1g) A     1 (B1g) B    
 -0.4057430259       1 (B3u) A     1 (B3u) B   ->    1 (B1g) B     1 (B1g) A    
 -0.4057430259       1 (B3u) B     1 (B3u) A   ->    1 (B1g) A     1 (B1g) B    
  0.4057430259       1 (B3u) B     1 (B3u) A   ->    1 (B1g) B     1 (B1g) A    
  0.3841593705       1 (Ag) A      1 (Ag) B    ->    1 (B2u) A     1 (B2u) B    
 -0.3841593705       1 (Ag) A      1 (Ag) B    ->    1 (B2u) B     1 (B2u) A    
 -0.3841593705       1 (Ag) B      1 (Ag) A    ->    1 (B2u) A     1 (B2u) B    
  0.3841593705       1 (Ag) B      1 (Ag) A    ->    1 (B2u) B     1 (B2u) A    
 -0.2873623829       1 (Ag) A      1 (Ag) B    ->    1 (B1g) A     1 (B1g) B    
  0.2873623829       1 (Ag) A      1 (Ag) B    ->    1 (B1g) B     1 (B1g) A    
  0.2873623829       1 (Ag) B      1 (Ag) A    ->    1 (B1g) A     1 (B1g) B    
 -0.2873623829       1 (Ag) B      1 (Ag) A    ->    1 (B1g) B     1 (B1g) A    
 -0.2721803945       1 (Ag) A      1 (B3u) A   ->    1 (B1g) A     1 (B2u) A    
  0.2721803945       1 (Ag) A      1 (B3u) A   ->    1 (B2u) A     1 (B1g) A    
  0.2721803945       1 (B3u) A     1 (Ag) A    ->    1 (B1g) A     1 (B2u) A    
 -0.2721803945       1 (B3u) A     1 (Ag) A    ->    1 (B2u) A     1 (B1g) A    
 -0.2721803945       1 (Ag) B      1 (B3u) B   ->    1 (B1g) B     1 (B2u) B    
  0.2721803945       1 (Ag) B      1 (B3u) B   ->    1 (B2u) B     1 (B1g) B    
  0.2721803945       1 (B3u) B     1 (Ag) B    ->    1 (B1g) B     1 (B2u) B    
 -0.2721803945       1 (B3u) B     1 (Ag) B    ->    1 (B2u) B     1 (B1g) B    
  0.1489057642       1 (Ag) A      1 (B3u) B   ->    1 (B2u) A     1 (B1g) B    
 -0.1489057642       1 (Ag) A      1 (B3u) B   ->    1 (B1g) B     1 (B2u) A    
  0.1489057642       1 (B3u) A     1 (Ag) B    ->    1 (B1g) A     1 (B2u) B    
 -0.1489057642       1 (B3u) A     1 (Ag) B    ->    1 (B2u) B     1 (B1g) A    
 -0.1489057642       1 (Ag) B      1 (B3u) A   ->    1 (B1g) A     1 (B2u) B    
  0.1489057642       1 (Ag) B      1 (B3u) A   ->    1 (B2u) B     1 (B1g) A    
 -0.1489057642       1 (B3u) B     1 (Ag) A    ->    1 (B2u) A     1 (B1g) B    
  0.1489057642       1 (B3u) B     1 (Ag) A    ->    1 (B1g) B     1 (B2u) A    
 -0.1149926002       1 (Ag) A      1 (B3u) B   ->    1 (B1g) A     1 (B2u) B    
  0.1149926002       1 (Ag) A      1 (B3u) B   ->    1 (B2u) B     1 (B1g) A    
 -0.1149926002       1 (B3u) A     1 (Ag) B    ->    1 (B2u) A     1 (B1g) B    
  0.1149926002       1 (B3u) A     1 (Ag) B    ->    1 (B1g) B     1 (B2u) A    
  0.1149926002       1 (Ag) B      1 (B3u) A   ->    1 (B2u) A     1 (B1g) B    
 -0.1149926002       1 (Ag) B      1 (B3u) A   ->    1 (B1g) B     1 (B2u) A    
  0.1149926002       1 (B3u) B     1 (Ag) A    ->    1 (B1g) A     1 (B2u) B    
 -0.1149926002       1 (B3u) B     1 (Ag) A    ->    1 (B2u) B     1 (B1g) A    

              Summary of significant orbitals:

               Number  Type             Irrep      Energy
               1       Occ  Alpha       1 (Ag)     -0.4055
               2       Occ  Alpha       1 (B3u)     -0.2917
               1       Occ  Beta        1 (Ag)     -0.4055
               2       Occ  Beta        1 (B3u)     -0.2917
               4       Vir  Alpha       1 (B1g)      0.2819
               3       Vir  Alpha       1 (B2u)      0.1783
               4       Vir  Beta        1 (B1g)      0.2819
               3       Vir  Beta        1 (B2u)      0.1783


 EEs and amplitudes of EOMEE has be exported to fchk file
Running a double precision version
      EOM-CCSD/MP2 left amplitudes will be solved using Davidson.
        Amplitudes will be solved using MOM  algorithm.
     Hard-coded thresholds: 
     LinDepThresh=1.00e-15  NormThresh=1.00e-06  ReorthogonThresh=1.00e-02

      Roots     MaxVec    MaxIter   Precond   Conv      Shift    
      1         120       60        1         1.00e-05  0.00e+00  
 ------------------------------------------------------------------------------
      Iter ConvRoots NVecs ResNorm Current eigenvalues (eV)
 ------------------------------------------------------------------------------
      0    0      1     9.92e-04   5.1016   
      1    0      2     1.24e-04   5.1014   
      2    1      3     3.65e-06   5.1014*  

     Davidson procedure converged

 Excited state properties for  EOMEE-CCSD transition 1/Ag
 Dipole moment (a.u.): 0.000000 (X 0.000000, Y -0.000000, Z -0.000000)
 R-squared (a.u.): 30.927667 (XX 17.328156, YY 11.046572, ZZ 2.552939)
 Gauge origin (a.u.): (0.000000, 0.000000, 0.000000)
 Angular momentum (a.u.) against gauge origin: 
 (X 0.000000i, Y 0.000000i, Z 0.000000i)
 Traces of the OPDMs: Tr(AA) 2.000000, Tr(BB) 2.000000

        Solving for EOMEE-CCSD B1g singlet states.

Running a double precision version
        EOMEE-CCSD/MP2 right amplitudes will be solved using Davidson.
        Amplitudes will be solved using standard  algorithm.
     Hard-coded thresholds: 
     LinDepThresh=1.00e-15  NormThresh=1.00e-06  ReorthogonThresh=1.00e-02

      Roots     MaxVec    MaxIter   Precond   Conv      Shift    
      1         120       60        1         1.00e-05  0.00e+00  
 ------------------------------------------------------------------------------
      Iter ConvRoots NVecs ResNorm Current eigenvalues (eV)
 ------------------------------------------------------------------------------
      0    0      1     1.07e-04   11.9323   
      1    1      2     7.08e-35   11.9304*  

     Davidson procedure converged

 EOMEE transition 1/B1g
 Total energy = -1.54462821 a.u.  Excitation energy = 11.93040028 eV.
 R0^2 = 0.0000  R1^2 = 1.0000  R2^2 = 0.0000  Res^2 = 7.08e-35
 Conv-d = yes

 Amplitude    Transitions between orbitals
 -0.7061150363       1 (B3u) A                 ->    1 (B2u) A                  
 -0.7061150363       1 (B3u) B                 ->    1 (B2u) B                  
 -0.0374373554       1 (Ag) A                  ->    1 (B1g) A                  
 -0.0374373554       1 (Ag) B                  ->    1 (B1g) B                  

              Summary of significant orbitals:

               Number  Type             Irrep      Energy
               1       Occ  Alpha       1 (Ag)     -0.4055
               2       Occ  Alpha       1 (B3u)     -0.2917
               1       Occ  Beta        1 (Ag)     -0.4055
               2       Occ  Beta        1 (B3u)     -0.2917
               4       Vir  Alpha       1 (B1g)      0.2819
               3       Vir  Alpha       1 (B2u)      0.1783
               4       Vir  Beta        1 (B1g)      0.2819
               3       Vir  Beta        1 (B2u)      0.1783


 EEs and amplitudes of EOMEE has be exported to fchk file
Running a double precision version
      EOM-CCSD/MP2 left amplitudes will be solved using Davidson.
        Amplitudes will be solved using MOM  algorithm.
     Hard-coded thresholds: 
     LinDepThresh=1.00e-15  NormThresh=1.00e-06  ReorthogonThresh=1.00e-02

      Roots     MaxVec    MaxIter   Precond   Conv      Shift    
      1         120       60        1         1.00e-05  0.00e+00  
 ------------------------------------------------------------------------------
      Iter ConvRoots NVecs ResNorm Current eigenvalues (eV)
 ------------------------------------------------------------------------------
      0    0      1     8.09e-05   11.9304   
      1    1      2     3.62e-32   11.9304*  

     Davidson procedure converged

 Excited state properties for  EOMEE-CCSD transition 1/B1g
 Dipole moment (a.u.): 0.000000 (X 0.000000, Y 0.000000, Z -0.000000)
 R-squared (a.u.): 30.354969 (XX 17.251035, YY 10.372293, ZZ 2.731641)
 Gauge origin (a.u.): (0.000000, 0.000000, 0.000000)
 Angular momentum (a.u.) against gauge origin: 
 (X 0.000000i, Y 0.000000i, Z 0.000000i)
 Traces of the OPDMs: Tr(AA) 2.000000, Tr(BB) 2.000000

        Solving for EOMEE-CCSD B2g singlet states.

Warning! Not enough singles to form guess subspace. Doubles guess vectors will be generated.
In case of poor EOM convergence, reduce requested EE_STATES.

        Solving for EOMEE-CCSD B3g singlet states.

Warning! Not enough singles to form guess subspace. Doubles guess vectors will be generated.
In case of poor EOM convergence, reduce requested EE_STATES.

        Solving for EOMEE-CCSD Au singlet states.

Warning! Not enough singles to form guess subspace. Doubles guess vectors will be generated.
In case of poor EOM convergence, reduce requested EE_STATES.

        Solving for EOMEE-CCSD B1u singlet states.

Warning! Not enough singles to form guess subspace. Doubles guess vectors will be generated.
In case of poor EOM convergence, reduce requested EE_STATES.

        Solving for EOMEE-CCSD B2u singlet states.

Running a double precision version
        EOMEE-CCSD/MP2 right amplitudes will be solved using Davidson.
        Amplitudes will be solved using standard  algorithm.
     Hard-coded thresholds: 
     LinDepThresh=1.00e-15  NormThresh=1.00e-06  ReorthogonThresh=1.00e-02

      Roots     MaxVec    MaxIter   Precond   Conv      Shift    
      1         120       60        1         1.00e-05  0.00e+00  
 ------------------------------------------------------------------------------
      Iter ConvRoots NVecs ResNorm Current eigenvalues (eV)
 ------------------------------------------------------------------------------
      0    0      1     1.13e-03   15.4864   
      1    1      2     1.09e-32   14.4475*  

     Davidson procedure converged

 EOMEE transition 1/B2u
 Total energy = -1.45212703 a.u.  Excitation energy = 14.44748528 eV.
 R0^2 = 0.0000  R1^2 = 1.0000  R2^2 = 0.0000  Res^2 = 1.09e-32
 Conv-d = yes

 Amplitude    Transitions between orbitals
 -0.5270446787       1 (Ag) A                  ->    1 (B2u) A                  
 -0.5270446787       1 (Ag) B                  ->    1 (B2u) B                  
 -0.4714063074       1 (B3u) A                 ->    1 (B1g) A                  
 -0.4714063074       1 (B3u) B                 ->    1 (B1g) B                  

              Summary of significant orbitals:

               Number  Type             Irrep      Energy
               1       Occ  Alpha       1 (Ag)     -0.4055
               2       Occ  Alpha       1 (B3u)     -0.2917
               1       Occ  Beta        1 (Ag)     -0.4055
               2       Occ  Beta        1 (B3u)     -0.2917
               4       Vir  Alpha       1 (B1g)      0.2819
               3       Vir  Alpha       1 (B2u)      0.1783
               4       Vir  Beta        1 (B1g)      0.2819
               3       Vir  Beta        1 (B2u)      0.1783


 EEs and amplitudes of EOMEE has be exported to fchk file
Running a double precision version
      EOM-CCSD/MP2 left amplitudes will be solved using Davidson.
        Amplitudes will be solved using MOM  algorithm.
     Hard-coded thresholds: 
     LinDepThresh=1.00e-15  NormThresh=1.00e-06  ReorthogonThresh=1.00e-02

      Roots     MaxVec    MaxIter   Precond   Conv      Shift    
      1         120       60        1         1.00e-05  0.00e+00  
 ------------------------------------------------------------------------------
      Iter ConvRoots NVecs ResNorm Current eigenvalues (eV)
 ------------------------------------------------------------------------------
      0    1      1     3.06e-07   14.4475*  

     Davidson procedure converged

 Excited state properties for  EOMEE-CCSD transition 1/B2u
 Dipole moment (a.u.): 0.000000 (X 0.000000, Y 0.000000, Z -0.000000)
 R-squared (a.u.): 30.751794 (XX 17.841146, YY 10.261816, ZZ 2.648832)
 Gauge origin (a.u.): (0.000000, 0.000000, 0.000000)
 Angular momentum (a.u.) against gauge origin: 
 (X 0.000000i, Y 0.000000i, Z 0.000000i)
 Traces of the OPDMs: Tr(AA) 2.000000, Tr(BB) 2.000000

        Solving for EOMEE-CCSD B3u singlet states.

Warning! Not enough singles to form guess subspace. Doubles guess vectors will be generated.
In case of poor EOM convergence, reduce requested EE_STATES.

Running a double precision version
        EOMEE-CCSD/MP2 right amplitudes will be solved using Davidson.
        Amplitudes will be solved using standard  algorithm.
     Hard-coded thresholds: 
     LinDepThresh=1.00e-15  NormThresh=1.00e-06  ReorthogonThresh=1.00e-02

      Roots     MaxVec    MaxIter   Precond   Conv      Shift    
      1         120       60        1         1.00e-05  0.00e+00  
 ------------------------------------------------------------------------------
      Iter ConvRoots NVecs ResNorm Current eigenvalues (eV)
 ------------------------------------------------------------------------------
      0    0      1     1.26e-01   23.0071   
      1    0      2     3.22e-03   18.2037   
      2    0      3     3.48e-04   17.2134   
      3    1      4     1.80e-31   17.1720*  

     Davidson procedure converged

 EOMEE transition 1/B3u
 Total energy = -1.35200432 a.u.  Excitation energy = 17.17196285 eV.
 R0^2 = 0.0000  R1^2 = 0.0000  R2^2 = 1.0000  Res^2 = 1.80e-31
 Conv-d = yes

 Amplitude    Transitions between orbitals
 -0.5005588101       1 (Ag) A      1 (B3u) B   ->    1 (B2u) A     1 (B2u) B    
  0.5005588101       1 (Ag) A      1 (B3u) B   ->    1 (B2u) B     1 (B2u) A    
 -0.5005588101       1 (B3u) A     1 (Ag) B    ->    1 (B2u) A     1 (B2u) B    
  0.5005588101       1 (B3u) A     1 (Ag) B    ->    1 (B2u) B     1 (B2u) A    
  0.5005588101       1 (Ag) B      1 (B3u) A   ->    1 (B2u) A     1 (B2u) B    
 -0.5005588101       1 (Ag) B      1 (B3u) A   ->    1 (B2u) B     1 (B2u) A    
  0.5005588101       1 (B3u) B     1 (Ag) A    ->    1 (B2u) A     1 (B2u) B    
 -0.5005588101       1 (B3u) B     1 (Ag) A    ->    1 (B2u) B     1 (B2u) A    
  0.4678677445       1 (B3u) A     1 (B3u) B   ->    1 (B1g) A     1 (B2u) B    
  0.4678677445       1 (B3u) A     1 (B3u) B   ->    1 (B2u) A     1 (B1g) B    
 -0.4678677445       1 (B3u) A     1 (B3u) B   ->    1 (B1g) B     1 (B2u) A    
 -0.4678677445       1 (B3u) A     1 (B3u) B   ->    1 (B2u) B     1 (B1g) A    
 -0.4678677445       1 (B3u) B     1 (B3u) A   ->    1 (B1g) A     1 (B2u) B    
 -0.4678677445       1 (B3u) B     1 (B3u) A   ->    1 (B2u) A     1 (B1g) B    
  0.4678677445       1 (B3u) B     1 (B3u) A   ->    1 (B1g) B     1 (B2u) A    
  0.4678677445       1 (B3u) B     1 (B3u) A   ->    1 (B2u) B     1 (B1g) A    
  0.1370686693       1 (Ag) A      1 (Ag) B    ->    1 (B1g) A     1 (B2u) B    
  0.1370686693       1 (Ag) A      1 (Ag) B    ->    1 (B2u) A     1 (B1g) B    
 -0.1370686693       1 (Ag) A      1 (Ag) B    ->    1 (B1g) B     1 (B2u) A    
 -0.1370686693       1 (Ag) A      1 (Ag) B    ->    1 (B2u) B     1 (B1g) A    
 -0.1370686693       1 (Ag) B      1 (Ag) A    ->    1 (B1g) A     1 (B2u) B    
 -0.1370686693       1 (Ag) B      1 (Ag) A    ->    1 (B2u) A     1 (B1g) B    
  0.1370686693       1 (Ag) B      1 (Ag) A    ->    1 (B1g) B     1 (B2u) A    
  0.1370686693       1 (Ag) B      1 (Ag) A    ->    1 (B2u) B     1 (B1g) A    
 -0.1084104753       1 (Ag) A      1 (B3u) B   ->    1 (B1g) A     1 (B1g) B    
  0.1084104753       1 (Ag) A      1 (B3u) B   ->    1 (B1g) B     1 (B1g) A    
 -0.1084104753       1 (B3u) A     1 (Ag) B    ->    1 (B1g) A     1 (B1g) B    
  0.1084104753       1 (B3u) A     1 (Ag) B    ->    1 (B1g) B     1 (B1g) A    
  0.1084104753       1 (Ag) B      1 (B3u) A   ->    1 (B1g) A     1 (B1g) B    
 -0.1084104753       1 (Ag) B      1 (B3u) A   ->    1 (B1g) B     1 (B1g) A    
  0.1084104753       1 (B3u) B     1 (Ag) A    ->    1 (B1g) A     1 (B1g) B    
 -0.1084104753       1 (B3u) B     1 (Ag) A    ->    1 (B1g) B     1 (B1g) A    

              Summary of significant orbitals:

               Number  Type             Irrep      Energy
               1       Occ  Alpha       1 (Ag)     -0.4055
               2       Occ  Alpha       1 (B3u)     -0.2917
               1       Occ  Beta        1 (Ag)     -0.4055
               2       Occ  Beta        1 (B3u)     -0.2917
               4       Vir  Alpha       1 (B1g)      0.2819
               3       Vir  Alpha       1 (B2u)      0.1783
               4       Vir  Beta        1 (B1g)      0.2819
               3       Vir  Beta        1 (B2u)      0.1783


 EEs and amplitudes of EOMEE has be exported to fchk file
Running a double precision version
      EOM-CCSD/MP2 left amplitudes will be solved using Davidson.
        Amplitudes will be solved using MOM  algorithm.
     Hard-coded thresholds: 
     LinDepThresh=1.00e-15  NormThresh=1.00e-06  ReorthogonThresh=1.00e-02

      Roots     MaxVec    MaxIter   Precond   Conv      Shift    
      1         120       60        1         1.00e-05  0.00e+00  
 ------------------------------------------------------------------------------
      Iter ConvRoots NVecs ResNorm Current eigenvalues (eV)
 ------------------------------------------------------------------------------
      0    1      1     1.39e-32   17.1720*  

     Davidson procedure converged

 Excited state properties for  EOMEE-CCSD transition 1/B3u
 Dipole moment (a.u.): 0.000000 (X 0.000000, Y 0.000000, Z -0.000000)
 R-squared (a.u.): 30.836822 (XX 17.158499, YY 11.102962, ZZ 2.575361)
 Gauge origin (a.u.): (0.000000, 0.000000, 0.000000)
 Angular momentum (a.u.) against gauge origin: 
 (X 0.000000i, Y 0.000000i, Z 0.000000i)
 Traces of the OPDMs: Tr(AA) 2.000000, Tr(BB) 2.000000

        Solving for EOMEE-CCSD Ag triplet states.

Warning! Not enough singles to form guess subspace. Doubles guess vectors will be generated.
In case of poor EOM convergence, reduce requested EE_STATES.

Running a double precision version
        EOMEE-CCSD/MP2 right amplitudes will be solved using Davidson.
        Amplitudes will be solved using standard  algorithm.
     Hard-coded thresholds: 
     LinDepThresh=1.00e-15  NormThresh=1.00e-06  ReorthogonThresh=1.00e-02

      Roots     MaxVec    MaxIter   Precond   Conv      Shift    
      1         120       60        1         1.00e-05  0.00e+00  
 ------------------------------------------------------------------------------
      Iter ConvRoots NVecs ResNorm Current eigenvalues (eV)
 ------------------------------------------------------------------------------
      0    0      1     1.77e-04   18.4693   
      1    0      2     1.11e-05   18.4290   
      2    1      3     1.41e-31   18.4257*  

     Davidson procedure converged

 EOMEE transition 1/Ag
 Total energy = -1.30593102 a.u.  Excitation energy = 18.42568096 eV.
 R0^2 = 0.0000  R1^2 = 0.0000  R2^2 = 1.0000  Res^2 = 1.41e-31
 Conv-d = yes

 Amplitude    Transitions between orbitals
 -0.7015751959       1 (Ag) A      1 (B3u) A   ->    1 (B1g) A     1 (B2u) A    
  0.7015751959       1 (Ag) A      1 (B3u) A   ->    1 (B2u) A     1 (B1g) A    
  0.7015751959       1 (B3u) A     1 (Ag) A    ->    1 (B1g) A     1 (B2u) A    
 -0.7015751959       1 (B3u) A     1 (Ag) A    ->    1 (B2u) A     1 (B1g) A    
  0.7015751959       1 (Ag) B      1 (B3u) B   ->    1 (B1g) B     1 (B2u) B    
 -0.7015751959       1 (Ag) B      1 (B3u) B   ->    1 (B2u) B     1 (B1g) B    
 -0.7015751959       1 (B3u) B     1 (Ag) B    ->    1 (B1g) B     1 (B2u) B    
  0.7015751959       1 (B3u) B     1 (Ag) B    ->    1 (B2u) B     1 (B1g) B    
 -0.0721010385       1 (Ag) A      1 (B3u) B   ->    1 (B2u) A     1 (B1g) B    
  0.0721010385       1 (Ag) A      1 (B3u) B   ->    1 (B1g) B     1 (B2u) A    
  0.0721010385       1 (B3u) A     1 (Ag) B    ->    1 (B1g) A     1 (B2u) B    
 -0.0721010385       1 (B3u) A     1 (Ag) B    ->    1 (B2u) B     1 (B1g) A    
 -0.0721010385       1 (Ag) B      1 (B3u) A   ->    1 (B1g) A     1 (B2u) B    
  0.0721010385       1 (Ag) B      1 (B3u) A   ->    1 (B2u) B     1 (B1g) A    
  0.0721010385       1 (B3u) B     1 (Ag) A    ->    1 (B2u) A     1 (B1g) B    
 -0.0721010385       1 (B3u) B     1 (Ag) A    ->    1 (B1g) B     1 (B2u) A    
  0.0509282311       1 (Ag) A      1 (B3u) B   ->    1 (B1g) A     1 (B2u) B    
 -0.0509282311       1 (Ag) A      1 (B3u) B   ->    1 (B2u) B     1 (B1g) A    
 -0.0509282311       1 (B3u) A     1 (Ag) B    ->    1 (B2u) A     1 (B1g) B    
  0.0509282311       1 (B3u) A     1 (Ag) B    ->    1 (B1g) B     1 (B2u) A    
  0.0509282311       1 (Ag) B      1 (B3u) A   ->    1 (B2u) A     1 (B1g) B    
 -0.0509282311       1 (Ag) B      1 (B3u) A   ->    1 (B1g) B     1 (B2u) A    
 -0.0509282311       1 (B3u) B     1 (Ag) A    ->    1 (B1g) A     1 (B2u) B    
  0.0509282311       1 (B3u) B     1 (Ag) A    ->    1 (B2u) B     1 (B1g) A    

              Summary of significant orbitals:

               Number  Type             Irrep      Energy
               1       Occ  Alpha       1 (Ag)     -0.4055
               2       Occ  Alpha       1 (B3u)     -0.2917
               1       Occ  Beta        1 (Ag)     -0.4055
               2       Occ  Beta        1 (B3u)     -0.2917
               4       Vir  Alpha       1 (B1g)      0.2819
               3       Vir  Alpha       1 (B2u)      0.1783
               4       Vir  Beta        1 (B1g)      0.2819
               3       Vir  Beta        1 (B2u)      0.1783


 EEs and amplitudes of EOMEE has be exported to fchk file
Running a double precision version
      EOM-CCSD/MP2 left amplitudes will be solved using Davidson.
        Amplitudes will be solved using MOM  algorithm.
     Hard-coded thresholds: 
     LinDepThresh=1.00e-15  NormThresh=1.00e-06  ReorthogonThresh=1.00e-02

      Roots     MaxVec    MaxIter   Precond   Conv      Shift    
      1         120       60        1         1.00e-05  0.00e+00  
 ------------------------------------------------------------------------------
      Iter ConvRoots NVecs ResNorm Current eigenvalues (eV)
 ------------------------------------------------------------------------------
      0    1      1     2.25e-32   18.4257*  

     Davidson procedure converged

 Excited state properties for  EOMEE-CCSD transition 1/Ag
 Dipole moment (a.u.): 0.000000 (X 0.000000, Y 0.000000, Z -0.000000)
 R-squared (a.u.): 31.152895 (XX 17.655094, YY 10.993352, ZZ 2.504449)
 Gauge origin (a.u.): (0.000000, 0.000000, 0.000000)
 Angular momentum (a.u.) against gauge origin: 
 (X 0.000000i, Y 0.000000i, Z 0.000000i)
 Traces of the OPDMs: Tr(AA) 2.000000, Tr(BB) 2.000000

        Solving for EOMEE-CCSD B1g triplet states.

Running a double precision version
        EOMEE-CCSD/MP2 right amplitudes will be solved using Davidson.
        Amplitudes will be solved using standard  algorithm.
     Hard-coded thresholds: 
     LinDepThresh=1.00e-15  NormThresh=1.00e-06  ReorthogonThresh=1.00e-02

      Roots     MaxVec    MaxIter   Precond   Conv      Shift    
      1         120       60        1         1.00e-05  0.00e+00  
 ------------------------------------------------------------------------------
      Iter ConvRoots NVecs ResNorm Current eigenvalues (eV)
 ------------------------------------------------------------------------------
      0    0      1     4.27e-02   5.8675   
      1    1      2     1.93e-33   2.1816*  

     Davidson procedure converged

 EOMEE transition 1/B1g
 Total energy = -1.90288980 a.u.  Excitation energy = 2.18160653 eV.
 R0^2 = 0.0000  R1^2 = 1.0000  R2^2 = 0.0000  Res^2 = 1.93e-33
 Conv-d = yes

 Amplitude    Transitions between orbitals
 -0.6035645248       1 (B3u) A                 ->    1 (B2u) A                  
  0.6035645248       1 (B3u) B                 ->    1 (B2u) B                  
  0.3683881980       1 (Ag) A                  ->    1 (B1g) A                  
 -0.3683881980       1 (Ag) B                  ->    1 (B1g) B                  

              Summary of significant orbitals:

               Number  Type             Irrep      Energy
               1       Occ  Alpha       1 (Ag)     -0.4055
               2       Occ  Alpha       1 (B3u)     -0.2917
               1       Occ  Beta        1 (Ag)     -0.4055
               2       Occ  Beta        1 (B3u)     -0.2917
               4       Vir  Alpha       1 (B1g)      0.2819
               3       Vir  Alpha       1 (B2u)      0.1783
               4       Vir  Beta        1 (B1g)      0.2819
               3       Vir  Beta        1 (B2u)      0.1783


 EEs and amplitudes of EOMEE has be exported to fchk file
Running a double precision version
      EOM-CCSD/MP2 left amplitudes will be solved using Davidson.
        Amplitudes will be solved using MOM  algorithm.
     Hard-coded thresholds: 
     LinDepThresh=1.00e-15  NormThresh=1.00e-06  ReorthogonThresh=1.00e-02

      Roots     MaxVec    MaxIter   Precond   Conv      Shift    
      1         120       60        1         1.00e-05  0.00e+00  
 ------------------------------------------------------------------------------
      Iter ConvRoots NVecs ResNorm Current eigenvalues (eV)
 ------------------------------------------------------------------------------
      0    0      1     2.31e-04   2.1816   
      1    1      2     2.91e-34   2.1816*  

     Davidson procedure converged

 Excited state properties for  EOMEE-CCSD transition 1/B1g
 Dipole moment (a.u.): 0.000000 (X 0.000000, Y 0.000000, Z -0.000000)
 R-squared (a.u.): 30.569767 (XX 17.580090, YY 10.304657, ZZ 2.685021)
 Gauge origin (a.u.): (0.000000, 0.000000, 0.000000)
 Angular momentum (a.u.) against gauge origin: 
 (X 0.000000i, Y 0.000000i, Z 0.000000i)
 Traces of the OPDMs: Tr(AA) 2.000000, Tr(BB) 2.000000

        Solving for EOMEE-CCSD B2g triplet states.

Warning! Not enough singles to form guess subspace. Doubles guess vectors will be generated.
In case of poor EOM convergence, reduce requested EE_STATES.

        Solving for EOMEE-CCSD B3g triplet states.

Warning! Not enough singles to form guess subspace. Doubles guess vectors will be generated.
In case of poor EOM convergence, reduce requested EE_STATES.

        Solving for EOMEE-CCSD Au triplet states.

Warning! Not enough singles to form guess subspace. Doubles guess vectors will be generated.
In case of poor EOM convergence, reduce requested EE_STATES.

        Solving for EOMEE-CCSD B1u triplet states.

Warning! Not enough singles to form guess subspace. Doubles guess vectors will be generated.
In case of poor EOM convergence, reduce requested EE_STATES.

        Solving for EOMEE-CCSD B2u triplet states.

Running a double precision version
        EOMEE-CCSD/MP2 right amplitudes will be solved using Davidson.
        Amplitudes will be solved using standard  algorithm.
     Hard-coded thresholds: 
     LinDepThresh=1.00e-15  NormThresh=1.00e-06  ReorthogonThresh=1.00e-02

      Roots     MaxVec    MaxIter   Precond   Conv      Shift    
      1         120       60        1         1.00e-05  0.00e+00  
 ------------------------------------------------------------------------------
      Iter ConvRoots NVecs ResNorm Current eigenvalues (eV)
 ------------------------------------------------------------------------------
      0    0      1     4.36e-02   8.5211   
      1    1      2     6.26e-33   3.0775*  

     Davidson procedure converged

 EOMEE transition 1/B2u
 Total energy = -1.86996773 a.u.  Excitation energy = 3.07746157 eV.
 R0^2 = 0.0000  R1^2 = 1.0000  R2^2 = 0.0000  Res^2 = 6.26e-33
 Conv-d = yes

 Amplitude    Transitions between orbitals
 -0.5096916120       1 (B3u) A                 ->    1 (B1g) A                  
  0.5096916120       1 (B3u) B                 ->    1 (B1g) B                  
  0.4901167827       1 (Ag) A                  ->    1 (B2u) A                  
 -0.4901167827       1 (Ag) B                  ->    1 (B2u) B                  

              Summary of significant orbitals:

               Number  Type             Irrep      Energy
               1       Occ  Alpha       1 (Ag)     -0.4055
               2       Occ  Alpha       1 (B3u)     -0.2917
               1       Occ  Beta        1 (Ag)     -0.4055
               2       Occ  Beta        1 (B3u)     -0.2917
               4       Vir  Alpha       1 (B1g)      0.2819
               3       Vir  Alpha       1 (B2u)      0.1783
               4       Vir  Beta        1 (B1g)      0.2819
               3       Vir  Beta        1 (B2u)      0.1783


 EEs and amplitudes of EOMEE has be exported to fchk file
Running a double precision version
      EOM-CCSD/MP2 left amplitudes will be solved using Davidson.
        Amplitudes will be solved using MOM  algorithm.
     Hard-coded thresholds: 
     LinDepThresh=1.00e-15  NormThresh=1.00e-06  ReorthogonThresh=1.00e-02

      Roots     MaxVec    MaxIter   Precond   Conv      Shift    
      1         120       60        1         1.00e-05  0.00e+00  
 ------------------------------------------------------------------------------
      Iter ConvRoots NVecs ResNorm Current eigenvalues (eV)
 ------------------------------------------------------------------------------
      0    1      1     6.95e-07   3.0775*  

     Davidson procedure converged

 Excited state properties for  EOMEE-CCSD transition 1/B2u
 Dipole moment (a.u.): 0.000000 (X 0.000000, Y 0.000000, Z -0.000000)
 R-squared (a.u.): 30.723864 (XX 17.822424, YY 10.251033, ZZ 2.650407)
 Gauge origin (a.u.): (0.000000, 0.000000, 0.000000)
 Angular momentum (a.u.) against gauge origin: 
 (X 0.000000i, Y 0.000000i, Z 0.000000i)
 Traces of the OPDMs: Tr(AA) 2.000000, Tr(BB) 2.000000

        Solving for EOMEE-CCSD B3u triplet states.

Warning! Not enough singles to form guess subspace. Doubles guess vectors will be generated.
In case of poor EOM convergence, reduce requested EE_STATES.

Running a double precision version
        EOMEE-CCSD/MP2 right amplitudes will be solved using Davidson.
        Amplitudes will be solved using standard  algorithm.
     Hard-coded thresholds: 
     LinDepThresh=1.00e-15  NormThresh=1.00e-06  ReorthogonThresh=1.00e-02

      Roots     MaxVec    MaxIter   Precond   Conv      Shift    
      1         120       60        1         1.00e-05  0.00e+00  
 ------------------------------------------------------------------------------
      Iter ConvRoots NVecs ResNorm Current eigenvalues (eV)
 ------------------------------------------------------------------------------
      0    0      1     5.90e-02   14.2516   
      1    0      2     1.63e-02   6.2788   
      2    0      3     1.05e-04   5.3594   
      3    1      4     4.78e-33   5.3547*  

     Davidson procedure converged

 EOMEE transition 1/B3u
 Total energy = -1.78627910 a.u.  Excitation energy = 5.35474505 eV.
 R0^2 = 0.0000  R1^2 = 0.0000  R2^2 = 1.0000  Res^2 = 4.78e-33
 Conv-d = yes

 Amplitude    Transitions between orbitals
 -0.4196595808       1 (B3u) A     1 (B3u) B   ->    1 (B1g) A     1 (B2u) B    
  0.4196595808       1 (B3u) A     1 (B3u) B   ->    1 (B2u) A     1 (B1g) B    
 -0.4196595808       1 (B3u) A     1 (B3u) B   ->    1 (B1g) B     1 (B2u) A    
  0.4196595808       1 (B3u) A     1 (B3u) B   ->    1 (B2u) B     1 (B1g) A    
  0.4196595808       1 (B3u) B     1 (B3u) A   ->    1 (B1g) A     1 (B2u) B    
 -0.4196595808       1 (B3u) B     1 (B3u) A   ->    1 (B2u) A     1 (B1g) B    
  0.4196595808       1 (B3u) B     1 (B3u) A   ->    1 (B1g) B     1 (B2u) A    
 -0.4196595808       1 (B3u) B     1 (B3u) A   ->    1 (B2u) B     1 (B1g) A    
 -0.4073264718       1 (Ag) A      1 (B3u) B   ->    1 (B2u) A     1 (B2u) B    
  0.4073264718       1 (Ag) A      1 (B3u) B   ->    1 (B2u) B     1 (B2u) A    
  0.4073264718       1 (B3u) A     1 (Ag) B    ->    1 (B2u) A     1 (B2u) B    
 -0.4073264718       1 (B3u) A     1 (Ag) B    ->    1 (B2u) B     1 (B2u) A    
 -0.4073264718       1 (Ag) B      1 (B3u) A   ->    1 (B2u) A     1 (B2u) B    
  0.4073264718       1 (Ag) B      1 (B3u) A   ->    1 (B2u) B     1 (B2u) A    
  0.4073264718       1 (B3u) B     1 (Ag) A    ->    1 (B2u) A     1 (B2u) B    
 -0.4073264718       1 (B3u) B     1 (Ag) A    ->    1 (B2u) B     1 (B2u) A    
  0.2844069284       1 (Ag) A      1 (B3u) B   ->    1 (B1g) A     1 (B1g) B    
 -0.2844069284       1 (Ag) A      1 (B3u) B   ->    1 (B1g) B     1 (B1g) A    
 -0.2844069284       1 (B3u) A     1 (Ag) B    ->    1 (B1g) A     1 (B1g) B    
  0.2844069284       1 (B3u) A     1 (Ag) B    ->    1 (B1g) B     1 (B1g) A    
  0.2844069284       1 (Ag) B      1 (B3u) A   ->    1 (B1g) A     1 (B1g) B    
 -0.2844069284       1 (Ag) B      1 (B3u) A   ->    1 (B1g) B     1 (B1g) A    
 -0.2844069284       1 (B3u) B     1 (Ag) A    ->    1 (B1g) A     1 (B1g) B    
  0.2844069284       1 (B3u) B     1 (Ag) A    ->    1 (B1g) B     1 (B1g) A    
  0.2776394797       1 (Ag) A      1 (Ag) B    ->    1 (B1g) A     1 (B2u) B    
 -0.2776394797       1 (Ag) A      1 (Ag) B    ->    1 (B2u) A     1 (B1g) B    
  0.2776394797       1 (Ag) A      1 (Ag) B    ->    1 (B1g) B     1 (B2u) A    
 -0.2776394797       1 (Ag) A      1 (Ag) B    ->    1 (B2u) B     1 (B1g) A    
 -0.2776394797       1 (Ag) B      1 (Ag) A    ->    1 (B1g) A     1 (B2u) B    
  0.2776394797       1 (Ag) B      1 (Ag) A    ->    1 (B2u) A     1 (B1g) B    
 -0.2776394797       1 (Ag) B      1 (Ag) A    ->    1 (B1g) B     1 (B2u) A    
  0.2776394797       1 (Ag) B      1 (Ag) A    ->    1 (B2u) B     1 (B1g) A    

              Summary of significant orbitals:

               Number  Type             Irrep      Energy
               1       Occ  Alpha       1 (Ag)     -0.4055
               2       Occ  Alpha       1 (B3u)     -0.2917
               1       Occ  Beta        1 (Ag)     -0.4055
               2       Occ  Beta        1 (B3u)     -0.2917
               4       Vir  Alpha       1 (B1g)      0.2819
               3       Vir  Alpha       1 (B2u)      0.1783
               4       Vir  Beta        1 (B1g)      0.2819
               3       Vir  Beta        1 (B2u)      0.1783


 EEs and amplitudes of EOMEE has be exported to fchk file
Running a double precision version
      EOM-CCSD/MP2 left amplitudes will be solved using Davidson.
        Amplitudes will be solved using MOM  algorithm.
     Hard-coded thresholds: 
     LinDepThresh=1.00e-15  NormThresh=1.00e-06  ReorthogonThresh=1.00e-02

      Roots     MaxVec    MaxIter   Precond   Conv      Shift    
      1         120       60        1         1.00e-05  0.00e+00  
 ------------------------------------------------------------------------------
      Iter ConvRoots NVecs ResNorm Current eigenvalues (eV)
 ------------------------------------------------------------------------------
      0    1      1     6.20e-32   5.3547*  

     Davidson procedure converged

 Excited state properties for  EOMEE-CCSD transition 1/B3u
 Dipole moment (a.u.): 0.000000 (X 0.000000, Y 0.000000, Z -0.000000)
 R-squared (a.u.): 31.009113 (XX 17.439316, YY 11.034977, ZZ 2.534820)
 Gauge origin (a.u.): (0.000000, 0.000000, 0.000000)
 Angular momentum (a.u.) against gauge origin: 
 (X 0.000000i, Y 0.000000i, Z 0.000000i)
 Traces of the OPDMs: Tr(AA) 2.000000, Tr(BB) 2.000000

 EOMEE-CCSD calculation:   CPU 2.55 s  wall 0.99 s

 Total ccman2 time:   CPU 5.23 s  wall 1.82 s


 --------------------------------------------------------------
             Orbital Energies (a.u.) and Symmetries
 --------------------------------------------------------------

 Alpha MOs, Restricted
 -- Occupied --                  
 -0.406  -0.292
  1 Ag    1 B3u                                                                
 -- Virtual --                   
  0.178   0.282
  1 B2u   1 B1g                                                                

 Beta MOs, Restricted
 -- Occupied --                  
 -0.406  -0.292
  1 Ag    1 B3u                                                                
 -- Virtual --                   
  0.178   0.282
  1 B2u   1 B1g                                                                
 --------------------------------------------------------------

          Ground-State Mulliken Net Atomic Charges

     Atom                 Charge (a.u.)
  ----------------------------------------
      1 H                    -0.000000
      2 H                     0.000000
      3 H                     0.000000
      4 H                     0.000000
  ----------------------------------------
  Sum of atomic charges =     0.000000

 -----------------------------------------------------------------
                    Cartesian Multipole Moments
 -----------------------------------------------------------------
    Charge (ESU x 10^10)
                 0.0000
    Dipole Moment (Debye)
         X      -0.0000      Y       0.0000      Z       0.0000
       Tot       0.0000
    Quadrupole Moments (Debye-Ang)
        XX      -3.8286     XY       0.0000     YY      -2.5456
        XZ       0.0000     YZ       0.0000     ZZ      -3.6631
    Octopole Moments (Debye-Ang^2)
       XXX       0.0000    XXY       0.0000    XYY      -0.0000
       YYY       0.0000    XXZ       0.0000    XYZ      -0.0000
       YYZ       0.0000    XZZ      -0.0000    YZZ       0.0000
       ZZZ       0.0000
    Hexadecapole Moments (Debye-Ang^3)
      XXXX     -26.6511   XXXY       0.0000   XXYY      -5.5501
      XYYY       0.0000   YYYY     -12.8042   XXXZ       0.0000
      XXYZ      -0.0000   XYYZ       0.0000   YYYZ      -0.0000
      XXZZ      -4.9162   XYZZ       0.0000   YYZZ      -2.7600
      XZZZ       0.0000   YZZZ      -0.0000   ZZZZ      -3.0396
 -----------------------------------------------------------------
 Total job time:  2.77s(wall), 6.55s(cpu) 
 Thu Aug 11 21:22:46 2022

        *************************************************************
        *                                                           *
        *  Thank you very much for using Q-Chem.  Have a nice day.  *
        *                                                           *
        *************************************************************


