Jobname.Temp
SP        R                             STO-3G              
Number of atoms                            I                3
Charge                                     I                0
Multiplicity                               I                1
Number of electrons                        I               10
Number of alpha electrons                  I                5
Number of beta electrons                   I                5
Atomic numbers                             I   N=           3
           8           1           1
Current cartesian coordinates              R   N=           9
 -2.93688043E-17  1.56837297E-17  1.61969218E-01 -1.04593072E+00 -1.12405841E-16
 -6.47876873E-01  1.04593072E+00 -1.30639968E-17 -6.47876873E-01
Nuclear charges                            R   N=           3
  8.00000000E+00  1.00000000E+00  1.00000000E+00
Number of basis functions                  I                7
Number of contracted shells                I                4
Number of primitive shells                 I               12
Highest angular momentum                   I                1
Largest degree of contraction              I                3
Shell types                                I   N=           4
           0          -1           0           0
Number of primitives per shell             I   N=           4
           3           3           3           3
Shell to atom map                          I   N=           4
           1           1           2           3
Primitive exponents                        R   N=          12
  1.30709320E+02  2.38088610E+01  6.44360830E+00  5.03315130E+00  1.16959610E+00
  3.80389000E-01  3.42525091E+00  6.23913730E-01  1.68855400E-01  3.42525091E+00
  6.23913730E-01  1.68855400E-01
Contraction coefficients                   R   N=          12
  1.54328969E-01  5.35328136E-01  4.44634536E-01 -9.99672287E-02  3.99512825E-01
  7.00115461E-01  1.54328971E-01  5.35328142E-01  4.44634542E-01  1.54328971E-01
  5.35328142E-01  4.44634542E-01
P(S=P) Contraction coefficients            R   N=          12
  0.00000000E+00  0.00000000E+00  0.00000000E+00  1.55916268E-01  6.07683714E-01
  3.91957386E-01  0.00000000E+00  0.00000000E+00  0.00000000E+00  0.00000000E+00
  0.00000000E+00  0.00000000E+00
Coordinates of each shell                  R   N=          12
 -2.93688043E-17  1.56837297E-17  1.61969218E-01 -2.93688043E-17  1.56837297E-17
  1.61969218E-01 -1.04593072E+00 -1.12405841E-16 -6.47876873E-01  1.04593072E+00
 -1.30639968E-17 -6.47876873E-01
Overlap Matrix                             R   N=          28
  1.00000000E+00  2.36703937E-01  1.00000000E+00 -1.69260129E-33 -5.47882949E-33
  1.00000000E+00 -9.47650044E-34  0.00000000E+00  0.00000000E+00  1.00000000E+00
 -1.05856940E-17  1.22394170E-17  0.00000000E+00  0.00000000E+00  1.00000000E+00
  9.74614138E-02  6.54540032E-01 -3.62192108E-01 -4.43557405E-17 -2.80439093E-01
  1.00000000E+00  9.74614138E-02  6.54540032E-01  3.62192108E-01 -9.95496111E-18
 -2.80439093E-01  4.35780740E-01  1.00000000E+00
Core Hamiltonian Matrix                    R   N=          28
 -3.31271898E+01 -7.70897113E+00 -9.66515665E+00  0.00000000E+00  0.00000000E+00
 -8.00185120E+00  0.00000000E+00  0.00000000E+00  0.00000000E+00 -7.72482893E+00
  3.55413535E-02  3.47061015E-01  0.00000000E+00  0.00000000E+00 -7.89090759E+00
 -3.19562795E+00 -5.67121864E+00  2.58179796E+00 -4.93842420E-17  2.15463455E+00
 -6.38353069E+00 -3.19562795E+00 -5.67121864E+00 -2.58179796E+00 -1.10835306E-17
  2.15463455E+00 -3.27137299E+00 -6.38353069E+00
Orbital Coefficients CCMAN2 Alpha          R   N=          49
  9.93416304E-01  3.49448865E-02  6.32589971E-17  7.30802866E-18 -7.80392835E-03
 -1.00097214E-02 -1.00097214E-02  2.29825272E-01 -7.71687427E-01 -3.55405043E-16
  3.15587621E-17  2.43601663E-01 -1.43791200E-01 -1.43791200E-01  1.08133653E-01
 -5.55921244E-01 -4.34567664E-15  3.68505603E-15 -8.43741680E-01  1.53064633E-01
  1.53064633E-01  6.21680895E-16 -3.30197014E-15  6.43569556E-01 -1.09671681E-16
 -6.02115907E-15 -4.17422290E-01  4.17422290E-01  3.40616045E-16 -1.62053407E-15
 -1.44830683E-16 -1.00000000E+00 -2.98154516E-15  1.74762491E-16  4.50069231E-16
  1.60761492E-01 -1.52053682E+00 -1.29882592E-14  1.00956179E-16  7.79768373E-01
  1.07779624E+00  1.07779624E+00 -1.81972493E-15  1.56541446E-14 -1.20623533E+00
 -6.85239911E-17 -8.07687250E-15 -1.21745389E+00  1.21745389E+00
Orbital Coefficients CCMAN2 Beta           R   N=          49
  2.29825272E-01 -7.71687427E-01 -3.55405043E-16  3.15587621E-17  2.43601663E-01
 -1.43791200E-01 -1.43791200E-01  1.08133653E-01 -5.55921244E-01 -4.34567664E-15
  3.68505603E-15 -8.43741680E-01  1.53064633E-01  1.53064633E-01  6.21680895E-16
 -3.30197014E-15  6.43569556E-01 -1.09671681E-16 -6.02115907E-15 -4.17422290E-01
  4.17422290E-01  3.40616045E-16 -1.62053407E-15 -1.44830683E-16 -1.00000000E+00
 -2.98154516E-15  1.74762491E-16  4.50069231E-16  1.60761492E-01 -1.52053682E+00
 -1.29882592E-14  1.00956179E-16  7.79768373E-01  1.07779624E+00  1.07779624E+00
 -1.81972493E-15  1.56541446E-14 -1.20623533E+00 -6.85239911E-17 -8.07687250E-15
 -1.21745389E+00  1.21745389E+00  9.93416304E-01  3.49448865E-02  6.32589971E-17
  7.30802866E-18 -7.80392835E-03 -1.00097214E-02 -1.00097214E-02
EOMEE transition A1 Excitation Energies    R   N=           1
  8.71973601E-01
Number of Active Occ                       I               10
Number of Active Vir                       I                4
Alpha Amplitudes                           R   N=           2
 -6.96419208E-01 -6.96419208E-01
Alpha J Indexes                            I   N=           2
           0           2
Alpha I Indexes                            I   N=           2
           8          30
EOMEE transition A2 Excitation Energies    R   N=           1
  9.38885854E-01
Number of Active Occ                       I               10
Number of Active Vir                       I                4
Alpha Amplitudes                           R   N=           2
  7.01406895E-01  7.01406895E-01
Alpha J Indexes                            I   N=           2
           0           2
Alpha I Indexes                            I   N=           2
          17          39
EOMEE transition B1 Excitation Energies    R   N=           1
  1.06778374E+00
Number of Active Occ                       I               10
Number of Active Vir                       I                4
Alpha Amplitudes                           R   N=           4
  6.76006372E-01 -1.80644801E-01  6.76006372E-01 -1.80644801E-01
Alpha J Indexes                            I   N=           2
           0           4
Alpha I Indexes                            I   N=           4
           9          12          31          34
EOMEE transition B2 Excitation Energies    R   N=           1
  7.97375574E-01
Number of Active Occ                       I               10
Number of Active Vir                       I                4
Alpha Amplitudes                           R   N=           2
  6.99944376E-01  6.99944376E-01
Alpha J Indexes                            I   N=           2
           0           2
Alpha I Indexes                            I   N=           2
          16          38
EOMEE transition A1 Excitation Energies    R   N=           1
  8.21901905E-01
Number of Active Occ                       I               10
Number of Active Vir                       I                4
Alpha Amplitudes                           R   N=           2
 -6.99644232E-01  6.99644232E-01
Alpha J Indexes                            I   N=           2
           0           2
Alpha I Indexes                            I   N=           2
           8          30
EOMEE transition A2 Excitation Energies    R   N=           1
  9.00891166E-01
Number of Active Occ                       I               10
Number of Active Vir                       I                4
Alpha Amplitudes                           R   N=           2
  7.02877915E-01 -7.02877915E-01
Alpha J Indexes                            I   N=           2
           0           2
Alpha I Indexes                            I   N=           2
          17          39
EOMEE transition B1 Excitation Energies    R   N=           1
  9.62214739E-01
Number of Active Occ                       I               10
Number of Active Vir                       I                4
Alpha Amplitudes                           R   N=           4
 -6.97009843E-01 -1.05093937E-01  6.97009843E-01  1.05093937E-01
Alpha J Indexes                            I   N=           2
           0           4
Alpha I Indexes                            I   N=           4
           9          12          31          34
EOMEE transition B2 Excitation Energies    R   N=           1
  7.18487192E-01
Number of Active Occ                       I               10
Number of Active Vir                       I                4
Alpha Amplitudes                           R   N=           2
  7.02634715E-01 -7.02634715E-01
Alpha J Indexes                            I   N=           2
           0           2
Alpha I Indexes                            I   N=           2
          16          38
Number of independent functions            I                7
Alpha MO coefficients                      R   N=          49
  9.93416304E-01  3.49448865E-02  6.32589971E-17  7.30802866E-18 -7.80392835E-03
 -1.00097214E-02 -1.00097214E-02  2.29825272E-01 -7.71687427E-01 -3.55405043E-16
  3.15587621E-17  2.43601663E-01 -1.43791200E-01 -1.43791200E-01  6.21680895E-16
 -3.30197014E-15  6.43569556E-01 -1.09671681E-16 -6.02115907E-15 -4.17422290E-01
  4.17422290E-01  1.08133653E-01 -5.55921244E-01 -4.34567664E-15  3.68505603E-15
 -8.43741680E-01  1.53064633E-01  1.53064633E-01  3.40616045E-16 -1.62053407E-15
 -1.44830683E-16 -1.00000000E+00 -2.98154516E-15  1.74762491E-16  4.50069231E-16
  1.60761492E-01 -1.52053682E+00 -1.29882592E-14  1.00956179E-16  7.79768373E-01
  1.07779624E+00  1.07779624E+00 -1.81972493E-15  1.56541446E-14 -1.20623533E+00
 -6.85239911E-17 -8.07687250E-15 -1.21745389E+00  1.21745389E+00
Alpha Orbital Energies                     R   N=           7
 -2.02558753E+01 -1.45914891E+00 -7.80557274E-01 -4.97509855E-01 -4.40097686E-01
  8.85816596E-01  1.11384557E+00
Total SCF Density                          R   N=          28
  2.10281886E+00 -4.07076605E-01  1.83162838E+00 -1.89626124E-16  1.25186075E-15
  8.31574986E-01  1.50152973E-16 -9.45170112E-16  1.50076348E-16  1.99887033E+00
 -8.65184671E-02  5.61799239E-01 -4.90810374E-16 -2.12147733E-16  1.53372920E+00
 -5.12019892E-02  3.42548463E-02 -5.22665011E-01  8.86549258E-16 -3.26337862E-01
  4.65729635E-01 -5.12019892E-02  3.42548463E-02  5.22665011E-01  1.50975811E-16
 -3.26337862E-01 -2.64334432E-01  4.65729635E-01
Pure Switching                             I                1
Dipole_Data                                R   N=           3
  2.27038850E-16  6.71442354E-16 -1.95509184E+00
Quadrupole_Data                            R   N=           6
 -4.54861579E+00  2.12281477E-16 -5.83514064E+00  1.41690694E-15  5.99038450E-16
 -5.32553000E+00
Octapole_Data                              R   N=          10
  1.04590134E-15 -1.27372978E-16  1.77102657E-16  7.89207873E-18 -3.87769709E-01
 -5.73138723E-17 -1.31740959E-01 -3.50736415E-17  1.45314280E-17 -5.28738614E-01
Hexadecapole_Data                          R   N=          15
 -4.49130338E+00  8.26669864E-17 -1.29352564E+00  4.64126287E-17 -2.94886832E+00
  4.00096643E-16  8.47865106E-17  1.27638826E-16  1.68678290E-16 -1.27148891E+00
  2.64612318E-17 -1.11348177E+00  5.45228525E-16  1.85315976E-16 -3.64781640E+00
