                  Welcome to Q-Chem
     A Quantum Leap Into The Future Of Chemistry


 Q-Chem 5.4 (devel), Q-Chem, Inc., Pleasanton, CA (2021)

 E. Epifanovsky,  A. T. B. Gilbert,  Xintian Feng,  Joonho Lee,  Yuezhi Mao,  
 N. Mardirossian,  P. Pokhilko,  A. White,  M. Wormit,  M. P. Coons,  
 A. L. Dempwolff,  Zhengting Gan,  D. Hait,  P. R. Horn,  L. D. Jacobson,  
 I. Kaliman,  J. Kussmann,  A. W. Lange,  Ka Un Lao,  D. S. Levine,  Jie Liu,  
 S. C. McKenzie,  A. F. Morrison,  K. Nanda,  F. Plasser,  D. R. Rehn,  
 M. L. Vidal,  Zhi-Qiang You,  Ying Zhu,  B. Alam,  B. Albrecht,  
 A. Aldossary,  E. Alguire,  J. H. Andersen,  D. Barton,  K. Begam,  A. Behn,  
 Y. A. Bernard,  E. J. Berquist,  H. Burton,  A. Carreras,  K. Carter-Fenk,  
 R. Chakraborty,  A. D. Chien,  K. D. Closser,  V. Cofer-Shabica,  
 S. Dasgupta,  Jia Deng,  M. de Wergifosse,  M. Diedenhofen,  Hainam Do,  
 S. Ehlert,  Po-Tung Fang,  S. Fatehi,  Qingguo Feng,  T. Friedhoff,  
 J. Gayvert,  Qinghui Ge,  G. Gidofalvi,  M. Goldey,  J. Gomes,  
 C. Gonzalez-Espinoza,  S. Gulania,  A. Gunina,  M. W. D. Hanson-Heine,  
 P. H. P. Harbach,  A. W. Hauser,  M. F. Herbst,  M. Hernandez Vera,  
 M. Hodecker,  Z. C. Holden,  S. Houck,  Xunkun Huang,  Kerwin Hui,  
 B. C. Huynh,  M. Ivanov,  Hyunjun Ji,  Hanjie Jiang,  B. Kaduk,  S. Kaehler,  
 K. Khistyaev,  Jaehoon Kim,  P. Klunzinger,  Z. Koczor-Benda,  
 Joong Hoon Koh,  D. Kosenkov,  L. Koulias,  T. Kowalczyk,  C. M. Krauter,  
 K. Kue,  A. Kunitsa,  T. Kus,  A. Landau,  K. V. Lawler,  D. Lefrancois,  
 S. Lehtola,  Rain Li,  Yi-Pei Li,  Jiashu Liang,  M. Liebenthal,  
 Hung-Hsuan Lin,  You-Sheng Lin,  Fenglai Liu,  Kuan-Yu Liu,  
 M. Loipersberger,  A. Luenser,  A. Manjanath,  P. Manohar,  E. Mansoor,  
 S. F. Manzer,  Shan-Ping Mao,  A. V. Marenich,  T. Markovich,  S. Mason,  
 S. A. Maurer,  P. F. McLaughlin,  M. F. S. J. Menger,  J.-M. Mewes,  
 S. A. Mewes,  P. Morgante,  J. W. Mullinax,  K. J. Oosterbaan,  G. Paran,  
 Alexander C. Paul,  Suranjan K. Paul,  F. Pavosevic,  Zheng Pei,  S. Prager,  
 E. I. Proynov,  E. Ramos,  B. Rana,  A. E. Rask,  A. Rettig,  R. M. Richard,  
 F. Rob,  E. Rossomme,  T. Scheele,  M. Scheurer,  M. Schneider,  
 N. Sergueev,  S. M. Sharada,  W. Skomorowski,  D. W. Small,  C. J. Stein,  
 Yu-Chuan Su,  E. J. Sundstrom,  Zhen Tao,  J. Thirman,  T. Tsuchimochi,  
 N. M. Tubman,  S. P. Veccham,  O. Vydrov,  J. Wenzel,  J. Witte,  A. Yamada,  
 Kun Yao,  S. Yeganeh,  S. R. Yost,  A. Zech,  Igor Ying Zhang,  Xing Zhang,  
 Yu Zhang,  D. Zuev,  A. Aspuru-Guzik,  A. T. Bell,  N. A. Besley,  
 K. B. Bravaya,  B. R. Brooks,  D. Casanova,  Jeng-Da Chai,  S. Coriani,  
 C. J. Cramer,  A. E. DePrince, III,  R. A. DiStasio Jr.,  A. Dreuw,  
 B. D. Dunietz,  T. R. Furlani,  W. A. Goddard III,  S. Grimme,  
 S. Hammes-Schiffer,  T. Head-Gordon,  W. J. Hehre,  Chao-Ping Hsu,  
 T.-C. Jagau,  Yousung Jung,  A. Klamt,  Jing Kong,  D. S. Lambrecht,  
 WanZhen Liang,  N. J. Mayhall,  C. W. McCurdy,  J. B. Neaton,  
 C. Ochsenfeld,  J. A. Parkhill,  R. Peverati,  V. A. Rassolov,  Yihan Shao,  
 L. V. Slipchenko,  T. Stauch,  R. P. Steele,  J. E. Subotnik,  
 A. J. W. Thom,  A. Tkatchenko,  D. G. Truhlar,  T. Van Voorhis,  
 T. A. Wesolowski,  K. B. Whaley,  H. L. Woodcock III,  P. M. Zimmerman,  
 S. Faraji,  P. M. W. Gill,  M. Head-Gordon,  J. M. Herbert,  A. I. Krylov

 Additional authors for Version 5.4.1: 
 S. Kotaru,  Shaozhi Li,  Xiangyuan Li,  F. Matz,  A. Molle,  Haisheng Ren,  
 Yingli Su,  Hung-Yi Tsai,  C. Utku,  Fang Wang

 Contributors to earlier versions of Q-Chem not listed above: 
 R. D. Adamson,  B. Austin,  R. Baer,  J. Baker,  G. J. O. Beran,  
 K. Brandhorst,  S. T. Brown,  E. F. C. Byrd,  A. K. Chakraborty,  
 G. K. L. Chan,  Chun-Min Chang,  Yunqing Chen,  C.-L. Cheng,  
 Siu Hung Chien,  D. M. Chipman,  D. L. Crittenden,  H. Dachsel,  
 R. J. Doerksen,  A. D. Dutoi,  R. G. Edgar,  J. Fosso-Tande,  
 L. Fusti-Molnar,  D. Ghosh,  A. Ghysels,  A. Golubeva-Zadorozhnaya,  
 J. Gonthier,  M. S. Gordon,  S. R. Gwaltney,  G. Hawkins,  J. E. Herr,  
 A. Heyden,  S. Hirata,  E. G. Hohenstein,  G. Kedziora,  F. J. Keil,  
 C. Kelley,  Jihan Kim,  R. A. King,  R. Z. Khaliullin,  P. P. Korambath,  
 W. Kurlancheek,  A. Laurent,  A. M. Lee,  M. S. Lee,  S. V. Levchenko,  
 Ching Yeh Lin,  D. Liotard,  E. Livshits,  R. C. Lochan,  I. Lotan,  
 L. A. Martinez-Martinez,  P. E. Maslen,  N. Nair,  D. P. O'Neill,  
 D. Neuhauser,  E. Neuscamman,  C. M. Oana,  R. Olivares-Amaya,  R. Olson,  
 T. M. Perrine,  B. Peters,  P. A. Pieniazek,  A. Prociuk,  Y. M. Rhee,  
 J. Ritchie,  M. A. Rohrdanz,  E. Rosta,  N. J. Russ,  H. F. Schaefer III,  
 M. W. Schmidt,  N. E. Schultz,  S. Sharma,  N. Shenvi,  C. D. Sherrill,  
 A. C. Simmonett,  A. Sodt,  T. Stein,  D. Stuck,  K. S. Thanthiriwatte,  
 V. Vanovschi,  L. Vogt,  Tao Wang,  A. Warshel,  M. A. Watson,  
 C. F. Williams,  Q. Wu,  X. Xu,  Jun Yang,  W. Zhang,  Yan Zhao

 Please cite Q-Chem as follows:
 Y. Shao et al., Mol. Phys. 113, 184-215 (2015)
 DOI: 10.1080/00268976.2014.952696

 Q-Chem 5.4.1 for Intel X86 EM64T Linux

 Parts of Q-Chem use Armadillo 9.900.5 (Nocturnal Misbehaviour).
 http://arma.sourceforge.net/

 Q-Chem begins on Sun Sep  4 11:42:39 2022  

orc43
 Host: 0

     Scratch files written to /scratch/yongbin/qchem1772//
 Processing $rem in /home/users/yongbin/software/yongbin_quantum/config/preferences:
 Processing $rem in /home/users/yongbin/.qchemrc:

 Checking the input file for inconsistencies... 	...done.

--------------------------------------------------------------
User input:
--------------------------------------------------------------
$comment
Water molecule
$end

$molecule
0 1
O
H O 0.7
H O 0.7 H 104.5
$end

$rem
   n_frozen_core = 0
   print_qis = true
   BASIS                = sto-3g
!   SYMMETRY             = true
!   CC_SYMMETRY          = false
   METHOD               = eom-ccsd
   EE_SINGLETS          = [1,1,1,1] ! Compute two EOM-EE singlet excited states
   EE_TRIPLETS          = [1,1,1,1] ! Compute two EOM-EE triplet excited states
   CC_REF_PROP          = true ! Compute ground state properties
   CC_EOM_PROP          = true ! Compute excited state properties
!   CC_OSFNO             = true
   GUI                  = 2
$end
--------------------------------------------------------------
 ----------------------------------------------------------------
             Standard Nuclear Orientation (Angstroms)
    I     Atom           X                Y                Z
 ----------------------------------------------------------------
    1      O      -0.0000000000     0.0000000000     0.0857104192
    2      H      -0.5534827016    -0.0000000000    -0.3428416768
    3      H       0.5534827016    -0.0000000000    -0.3428416768
 ----------------------------------------------------------------
 Molecular Point Group                 C2v   NOp =  4
 Largest Abelian Subgroup              C2v   NOp =  4
 Nuclear Repulsion Energy =          12.57352224 hartrees
 There are        5 alpha and        5 beta electrons
 Requested basis set is STO-3G
 There are 4 shells and 7 basis functions
 Total memory of 2000 MB is distributed as follows: 
   MEM_STATIC is set to 192 MB
   QALLOC/CCMAN JOB total memory use is  1808 MB
 Warning: actual memory use might exceed 2000 MB

 Total QAlloc Memory Limit   2000 MB
 Mega-Array Size       188 MB
 MEM_STATIC part       192 MB

                       Distance Matrix (Angstroms)
             O (  1)   H (  2)
   H (  2)  0.700000
   H (  3)  0.700000  1.106965

 A cutoff of  1.0D-14 yielded     10 shell pairs
 There are        34 function pairs
 Smallest overlap matrix eigenvalue = 1.79E-01

 Scale SEOQF with 1.000000e+00/1.000000e+00/1.000000e+00

 Standard Electronic Orientation quadrupole field applied
 Guess from superposition of atomic densities
 Warning:  Energy on first SCF cycle will be non-variational
 SAD guess density has 10.000000 electrons

 -----------------------------------------------------------------------
  General SCF calculation program by
  Eric Jon Sundstrom, Paul Horn, Yuezhi Mao, Dmitri Zuev, Alec White,
  David Stuck, Shaama M.S., Shane Yost, Joonho Lee, David Small,
  Daniel Levine, Susi Lehtola, Hugh Burton, Evgeny Epifanovsky,
  Bang C. Huynh
 -----------------------------------------------------------------------
 Hartree-Fock
 using 20 threads for integral computing
 -------------------------------------------------------
 OpenMP Integral computing Module                
 Release: version 1.0, May 2013, Q-Chem Inc. Pittsburgh 
 -------------------------------------------------------
 A restricted SCF calculation will be
 performed using DIIS
 SCF converges when DIIS error is below 1.0e-08
 ---------------------------------------
  Cycle       Energy         DIIS error
 ---------------------------------------
    1     -75.4225723950      7.72e-01  
    2     -74.5995326980      5.33e-02  
    3     -74.6184924776      5.89e-03  
    4     -74.6187369683      1.01e-03  
    5     -74.6187442062      2.63e-05  
    6     -74.6187442139      6.87e-06  
    7     -74.6187442145      3.75e-09  Convergence criterion met
 ---------------------------------------
 SCF time:   CPU 0.74s  wall 0.00s 
 SCF   energy in the final basis set =      -74.6187442145
 Total energy in the final basis set =      -74.6187442145


 ------------------------------------------------------------------------------

   CCMAN2: suite of methods based on coupled cluster
           and equation of motion theories.

   Components:
   * libvmm-1.3-trunk
     by Evgeny Epifanovsky, Ilya Kaliman.
   * libtensor-2.5-trunk
     by Evgeny Epifanovsky, Michael Wormit, Dmitry Zuev, Sam Manzer, 
        Ilya Kaliman.
   * libcc-2.5-trunk
     by Evgeny Epifanovsky, Arik Landau, Tomasz Kus, Kirill Khistyaev, 
        Dmitry Zuev, Prashant Manohar, Xintian Feng, Anna Krylov, 
        Matthew Goldey, Alec White, Thomas Jagau, Kaushik Nanda, 
        Anastasia Gunina, Alexander Kunitsa, Joonho Lee.

   CCMAN original authors:
   Anna I. Krylov, C. David Sherrill, Steven R. Gwaltney,
   Edward F. C. Byrd (2000)
   Sergey V. Levchenko, Lyudmila V. Slipchenko, Tao Wang,
   Ana-Maria C. Cristian (2003)
   Piotr A. Pieniazek, C. Melania Oana, Evgeny Epifanovsky (2007)
   Prashant Manohar (2009)

 ------------------------------------------------------------------------------


 Allocating and initializing 1808MB of RAM...
 Calculation will run on 20 cores.


 Alpha MOs, Restricted
 -- Occupied --                  
-20.256  -1.459  -0.781  -0.498  -0.440
  1 A1    2 A1    1 B1    3 A1    1 B2                                         
 -- Virtual --                   
  0.886   1.114
  4 A1    2 B1                                                                 

 Beta MOs, Restricted
 -- Occupied --                  
-20.256  -1.459  -0.781  -0.498  -0.440
  1 A1    2 A1    1 B1    3 A1    1 B2                                         
 -- Virtual --                   
  0.886   1.114
  4 A1    2 B1                                                                 

 Occupation and symmetry of molecular orbitals

 Point group: C2v (4 irreducible representations).

                           A1   A2   B1   B2    All 
 ----------------------------------------------------
 All molecular orbitals:
  - Alpha                  4    0    2    1     7   
  - Beta                   4    0    2    1     7   
 ----------------------------------------------------
 Alpha orbitals:
  - Frozen occupied        0    0    0    0     0   
  - Active occupied        3    0    1    1     5   
  - Active virtual         1    0    1    0     2   
  - Frozen virtual         0    0    0    0     0   
 ----------------------------------------------------
 Beta orbitals:
  - Frozen occupied        0    0    0    0     0   
  - Active occupied        3    0    1    1     5   
  - Active virtual         1    0    1    0     2   
  - Frozen virtual         0    0    0    0     0   
 ----------------------------------------------------

 Import integrals:   CPU 0.00 s  wall 0.00 s

 Import integrals:   CPU 0.14 s  wall 0.02 s

 Run QIS:   CPU 0.01 s  wall 0.02 s

 MP2 amplitudes:   CPU 0.03 s  wall 0.02 s

Running a double precision version
           CCSD T amplitudes will be solved using DIIS.

           Start     Size      MaxIter   EConv     TConv     
           3         7         100       1.00e-06  1.00e-04  
 ------------------------------------------------------------------------------
           Energy (a.u.)   Ediff      Tdiff       Comment
 ------------------------------------------------------------------------------
           -74.63797154                           
     1     -74.64220028   4.23e-03   1.09e-01     
     2     -74.64324975   1.05e-03   2.41e-02     
     3     -74.64353306   2.83e-04   6.47e-03     
     4     -74.64364949   1.16e-04   2.65e-03     Switched to DIIS steps.
     5     -74.64365107   1.58e-06   2.21e-04     
     6     -74.64365109   1.81e-08   3.22e-05     
 ------------------------------------------------------------------------------
           -74.64365109                           CCSD T converged.

End of double precision
 SCF energy                 = -74.61874421
 MP2 energy                 = -74.63797154
 CCSD correlation energy    =  -0.02490687
 CCSD total energy          = -74.64365109

 CCSD  T1^2 = 0.0000  T2^2 = 0.0086  Leading amplitudes:

 Amplitude    Orbitals with energies
 0.0035605756       3 (A1) A                  ->    4 (A1) A                   
                   -0.4975                          0.8858                     
 0.0035605756       3 (A1) B                  ->    4 (A1) B                   
                   -0.4975                          0.8858                     
 0.0025358030       1 (B1) A                  ->    2 (B1) A                   
                   -0.7806                          1.1138                     
 0.0025358030       1 (B1) B                  ->    2 (B1) B                   
                   -0.7806                          1.1138                     

 Amplitude    Orbitals with energies
 -0.0494497214       1 (B1) A      1 (B1) B    ->    2 (B1) A      2 (B1) B     
                    -0.7806       -0.7806            1.1138        1.1138       
  0.0494497214       1 (B1) A      1 (B1) B    ->    2 (B1) B      2 (B1) A     
                    -0.7806       -0.7806            1.1138        1.1138       
  0.0494497214       1 (B1) B      1 (B1) A    ->    2 (B1) A      2 (B1) B     
                    -0.7806       -0.7806            1.1138        1.1138       
 -0.0494497214       1 (B1) B      1 (B1) A    ->    2 (B1) B      2 (B1) A     
                    -0.7806       -0.7806            1.1138        1.1138       

 Computing CCSD intermediates for later calculations in double precision
 Finished.

Running a double precision version
           CCSD Lambda amplitudes will be solved using DIIS.
           Start     Size      MaxIter   EConv     LConv     
           3         7         100       1.00e-06  1.00e-04  
 ------------------------------------------------------------------------------
            Enorm      Ldiff       Comment
 ------------------------------------------------------------------------------
     1     1.07e-03   6.91e-04     
     2     2.56e-04   2.01e-04     
     3     7.05e-05   5.71e-05     
     4     7.98e-06   2.23e-05     Switched to DIIS steps.
     5     1.13e-06   1.52e-06     
     6     1.41e-07   6.65e-08     
 ------------------------------------------------------------------------------
                                   CCSD Lambda converged.

 Computing density matrices in double precision...
 Computing density matrices... Done.
 Reference state properties
 Dipole moment (a.u.): 0.769192 (X 0.000000, Y 0.000000, Z -0.769192)
 R-squared (a.u.): 14.916773 (XX 5.569727, YY 4.338284, ZZ 5.008762)
 Gauge origin (a.u.): (0.000000, 0.000000, 0.000000)
 Angular momentum (a.u.) against gauge origin: 
 (X 0.000000i, Y 0.000000i, Z 0.000000i)
 Traces of the OPDMs: Tr(AA) 5.000000, Tr(BB) 5.000000
 Density matrix was written to a file for further analysis.

 CCSD calculation:   CPU 3.18 s  wall 0.75 s

        Solving for EOMEE-CCSD A1 singlet states.

Running a double precision version
        EOMEE-CCSD/MP2 right amplitudes will be solved using Davidson.
        Amplitudes will be solved using standard  algorithm.
     Hard-coded thresholds: 
     LinDepThresh=1.00e-15  NormThresh=1.00e-06  ReorthogonThresh=1.00e-02

      Roots     MaxVec    MaxIter   Precond   Conv      Shift    
      1         120       60        1         1.00e-05  0.00e+00  
 ------------------------------------------------------------------------------
      Iter ConvRoots NVecs ResNorm Current eigenvalues (eV)
 ------------------------------------------------------------------------------
      0    0      1     5.89e-02   24.8094   
      1    0      2     1.75e-01   24.1460   
      2    0      3     1.23e-03   23.7344   
      3    0      4     1.56e-04   23.7277   
      4    0      5     2.07e-05   23.7276   
      5    1      6     7.57e-07   23.7276*  

     Davidson procedure converged

 EOMEE transition 1/A1
 Total energy = -73.77167749 a.u.  Excitation energy = 23.72760841 eV.
 R0^2 = 0.0001  R1^2 = 0.9775  R2^2 = 0.0225  Res^2 = 7.57e-07
 Conv-d = yes

 Amplitude    Transitions between orbitals
 -0.6964192081       3 (A1) A                  ->    4 (A1) A                   
 -0.6964192081       3 (A1) B                  ->    4 (A1) B                   
  0.0566210378       1 (B1) A                  ->    2 (B1) A                   
  0.0566210378       1 (B1) B                  ->    2 (B1) B                   
 -0.0234999945       2 (A1) A                  ->    4 (A1) A                   
 -0.0234999945       2 (A1) B                  ->    4 (A1) B                   
 -0.0005639691       1 (A1) A                  ->    4 (A1) A                   
 -0.0005639691       1 (A1) B                  ->    4 (A1) B                   
  0.0703902536       3 (A1) A      1 (B1) B    ->    4 (A1) A      2 (B1) B     
 -0.0703902536       3 (A1) A      1 (B1) B    ->    2 (B1) B      4 (A1) A     
  0.0703902536       1 (B1) A      3 (A1) B    ->    2 (B1) A      4 (A1) B     
 -0.0703902536       1 (B1) A      3 (A1) B    ->    4 (A1) B      2 (B1) A     
 -0.0703902536       3 (A1) B      1 (B1) A    ->    2 (B1) A      4 (A1) B     
  0.0703902536       3 (A1) B      1 (B1) A    ->    4 (A1) B      2 (B1) A     
 -0.0703902536       1 (B1) B      3 (A1) A    ->    4 (A1) A      2 (B1) B     
  0.0703902536       1 (B1) B      3 (A1) A    ->    2 (B1) B      4 (A1) A     
  0.0486065546       3 (A1) A      3 (A1) B    ->    2 (B1) A      2 (B1) B     
 -0.0486065546       3 (A1) A      3 (A1) B    ->    2 (B1) B      2 (B1) A     
 -0.0486065546       3 (A1) B      3 (A1) A    ->    2 (B1) A      2 (B1) B     
  0.0486065546       3 (A1) B      3 (A1) A    ->    2 (B1) B      2 (B1) A     
  0.0438981678       3 (A1) A      3 (A1) B    ->    4 (A1) A      4 (A1) B     
 -0.0438981678       3 (A1) A      3 (A1) B    ->    4 (A1) B      4 (A1) A     
 -0.0438981678       3 (A1) B      3 (A1) A    ->    4 (A1) A      4 (A1) B     
  0.0438981678       3 (A1) B      3 (A1) A    ->    4 (A1) B      4 (A1) A     
  0.0419183442       3 (A1) A      1 (B1) B    ->    2 (B1) A      4 (A1) B     
 -0.0419183442       3 (A1) A      1 (B1) B    ->    4 (A1) B      2 (B1) A     
  0.0419183442       1 (B1) A      3 (A1) B    ->    4 (A1) A      2 (B1) B     
 -0.0419183442       1 (B1) A      3 (A1) B    ->    2 (B1) B      4 (A1) A     
 -0.0419183442       3 (A1) B      1 (B1) A    ->    4 (A1) A      2 (B1) B     
  0.0419183442       3 (A1) B      1 (B1) A    ->    2 (B1) B      4 (A1) A     
 -0.0419183442       1 (B1) B      3 (A1) A    ->    2 (B1) A      4 (A1) B     
  0.0419183442       1 (B1) B      3 (A1) A    ->    4 (A1) B      2 (B1) A     
  0.0284703117       3 (A1) A      1 (B1) A    ->    4 (A1) A      2 (B1) A     
 -0.0284703117       3 (A1) A      1 (B1) A    ->    2 (B1) A      4 (A1) A     
 -0.0284703117       1 (B1) A      3 (A1) A    ->    4 (A1) A      2 (B1) A     
  0.0284703117       1 (B1) A      3 (A1) A    ->    2 (B1) A      4 (A1) A     
  0.0284703117       3 (A1) B      1 (B1) B    ->    4 (A1) B      2 (B1) B     
 -0.0284703117       3 (A1) B      1 (B1) B    ->    2 (B1) B      4 (A1) B     
 -0.0284703117       1 (B1) B      3 (A1) B    ->    4 (A1) B      2 (B1) B     
  0.0284703117       1 (B1) B      3 (A1) B    ->    2 (B1) B      4 (A1) B     
 -0.0247375867       1 (B2) A      1 (B2) B    ->    4 (A1) A      4 (A1) B     
  0.0247375867       1 (B2) A      1 (B2) B    ->    4 (A1) B      4 (A1) A     
  0.0247375867       1 (B2) B      1 (B2) A    ->    4 (A1) A      4 (A1) B     
 -0.0247375867       1 (B2) B      1 (B2) A    ->    4 (A1) B      4 (A1) A     
  0.0197233908       2 (A1) A      1 (B1) B    ->    4 (A1) A      2 (B1) B     
 -0.0197233908       2 (A1) A      1 (B1) B    ->    2 (B1) B      4 (A1) A     
  0.0197233908       1 (B1) A      2 (A1) B    ->    2 (B1) A      4 (A1) B     
 -0.0197233908       1 (B1) A      2 (A1) B    ->    4 (A1) B      2 (B1) A     
 -0.0197233908       2 (A1) B      1 (B1) A    ->    2 (B1) A      4 (A1) B     
  0.0197233908       2 (A1) B      1 (B1) A    ->    4 (A1) B      2 (B1) A     
 -0.0197233908       1 (B1) B      2 (A1) A    ->    4 (A1) A      2 (B1) B     
  0.0197233908       1 (B1) B      2 (A1) A    ->    2 (B1) B      4 (A1) A     
 -0.0165937097       1 (B1) A      1 (B1) B    ->    4 (A1) A      4 (A1) B     
  0.0165937097       1 (B1) A      1 (B1) B    ->    4 (A1) B      4 (A1) A     
  0.0165937097       1 (B1) B      1 (B1) A    ->    4 (A1) A      4 (A1) B     
 -0.0165937097       1 (B1) B      1 (B1) A    ->    4 (A1) B      4 (A1) A     
 -0.0159215340       2 (A1) A      3 (A1) B    ->    4 (A1) A      4 (A1) B     
 -0.0159215340       3 (A1) A      2 (A1) B    ->    4 (A1) A      4 (A1) B     
  0.0159215340       2 (A1) A      3 (A1) B    ->    4 (A1) B      4 (A1) A     
  0.0159215340       3 (A1) A      2 (A1) B    ->    4 (A1) B      4 (A1) A     
  0.0159215340       3 (A1) B      2 (A1) A    ->    4 (A1) A      4 (A1) B     
  0.0159215340       2 (A1) B      3 (A1) A    ->    4 (A1) A      4 (A1) B     
 -0.0159215340       2 (A1) B      3 (A1) A    ->    4 (A1) B      4 (A1) A     
 -0.0159215340       3 (A1) B      2 (A1) A    ->    4 (A1) B      4 (A1) A     
 -0.0158686687       2 (A1) A      3 (A1) B    ->    2 (B1) A      2 (B1) B     
 -0.0158686687       3 (A1) A      2 (A1) B    ->    2 (B1) A      2 (B1) B     
  0.0158686687       2 (A1) A      3 (A1) B    ->    2 (B1) B      2 (B1) A     
  0.0158686687       3 (A1) A      2 (A1) B    ->    2 (B1) B      2 (B1) A     
  0.0158686687       3 (A1) B      2 (A1) A    ->    2 (B1) A      2 (B1) B     
  0.0158686687       2 (A1) B      3 (A1) A    ->    2 (B1) A      2 (B1) B     
 -0.0158686687       2 (A1) B      3 (A1) A    ->    2 (B1) B      2 (B1) A     
 -0.0158686687       3 (A1) B      2 (A1) A    ->    2 (B1) B      2 (B1) A     
  0.0106507498       2 (A1) A      1 (B1) A    ->    4 (A1) A      2 (B1) A     
 -0.0106507498       2 (A1) A      1 (B1) A    ->    2 (B1) A      4 (A1) A     
 -0.0106507498       1 (B1) A      2 (A1) A    ->    4 (A1) A      2 (B1) A     
  0.0106507498       1 (B1) A      2 (A1) A    ->    2 (B1) A      4 (A1) A     
  0.0106507498       2 (A1) B      1 (B1) B    ->    4 (A1) B      2 (B1) B     
 -0.0106507498       2 (A1) B      1 (B1) B    ->    2 (B1) B      4 (A1) B     
 -0.0106507498       1 (B1) B      2 (A1) B    ->    4 (A1) B      2 (B1) B     
  0.0106507498       1 (B1) B      2 (A1) B    ->    2 (B1) B      4 (A1) B     
  0.0090726393       2 (A1) A      1 (B1) B    ->    2 (B1) A      4 (A1) B     
 -0.0090726393       2 (A1) A      1 (B1) B    ->    4 (A1) B      2 (B1) A     
  0.0090726393       1 (B1) A      2 (A1) B    ->    4 (A1) A      2 (B1) B     
 -0.0090726393       1 (B1) A      2 (A1) B    ->    2 (B1) B      4 (A1) A     
 -0.0090726393       2 (A1) B      1 (B1) A    ->    4 (A1) A      2 (B1) B     
  0.0090726393       2 (A1) B      1 (B1) A    ->    2 (B1) B      4 (A1) A     
 -0.0090726393       1 (B1) B      2 (A1) A    ->    2 (B1) A      4 (A1) B     
  0.0090726393       1 (B1) B      2 (A1) A    ->    4 (A1) B      2 (B1) A     
  0.0069766825       2 (A1) A      2 (A1) B    ->    4 (A1) A      4 (A1) B     
 -0.0069766825       2 (A1) A      2 (A1) B    ->    4 (A1) B      4 (A1) A     
 -0.0069766825       2 (A1) B      2 (A1) A    ->    4 (A1) A      4 (A1) B     
  0.0069766825       2 (A1) B      2 (A1) A    ->    4 (A1) B      4 (A1) A     
 -0.0047464959       2 (A1) A      2 (A1) B    ->    2 (B1) A      2 (B1) B     
  0.0047464959       2 (A1) A      2 (A1) B    ->    2 (B1) B      2 (B1) A     
  0.0047464959       2 (A1) B      2 (A1) A    ->    2 (B1) A      2 (B1) B     
 -0.0047464959       2 (A1) B      2 (A1) A    ->    2 (B1) B      2 (B1) A     
 -0.0022668450       1 (B1) A      1 (B1) B    ->    2 (B1) A      2 (B1) B     
  0.0022668450       1 (B1) A      1 (B1) B    ->    2 (B1) B      2 (B1) A     
  0.0022668450       1 (B1) B      1 (B1) A    ->    2 (B1) A      2 (B1) B     
 -0.0022668450       1 (B1) B      1 (B1) A    ->    2 (B1) B      2 (B1) A     
 -0.0011728663       1 (B2) A      1 (B2) B    ->    2 (B1) A      2 (B1) B     
  0.0011728663       1 (B2) A      1 (B2) B    ->    2 (B1) B      2 (B1) A     
  0.0011728663       1 (B2) B      1 (B2) A    ->    2 (B1) A      2 (B1) B     
 -0.0011728663       1 (B2) B      1 (B2) A    ->    2 (B1) B      2 (B1) A     
 -0.0011710761       1 (A1) A      2 (A1) B    ->    4 (A1) A      4 (A1) B     
 -0.0011710761       2 (A1) A      1 (A1) B    ->    4 (A1) A      4 (A1) B     
  0.0011710761       1 (A1) A      2 (A1) B    ->    4 (A1) B      4 (A1) A     
  0.0011710761       2 (A1) A      1 (A1) B    ->    4 (A1) B      4 (A1) A     
  0.0011710761       2 (A1) B      1 (A1) A    ->    4 (A1) A      4 (A1) B     
  0.0011710761       1 (A1) B      2 (A1) A    ->    4 (A1) A      4 (A1) B     
 -0.0011710761       1 (A1) B      2 (A1) A    ->    4 (A1) B      4 (A1) A     
 -0.0011710761       2 (A1) B      1 (A1) A    ->    4 (A1) B      4 (A1) A     
 -0.0005474590       1 (A1) A      3 (A1) B    ->    4 (A1) A      4 (A1) B     
 -0.0005474590       3 (A1) A      1 (A1) B    ->    4 (A1) A      4 (A1) B     
  0.0005474590       1 (A1) A      3 (A1) B    ->    4 (A1) B      4 (A1) A     
  0.0005474590       3 (A1) A      1 (A1) B    ->    4 (A1) B      4 (A1) A     
  0.0005474590       3 (A1) B      1 (A1) A    ->    4 (A1) A      4 (A1) B     
  0.0005474590       1 (A1) B      3 (A1) A    ->    4 (A1) A      4 (A1) B     
 -0.0005474590       1 (A1) B      3 (A1) A    ->    4 (A1) B      4 (A1) A     
 -0.0005474590       3 (A1) B      1 (A1) A    ->    4 (A1) B      4 (A1) A     
 -0.0003144518       1 (A1) A      3 (A1) B    ->    2 (B1) A      2 (B1) B     
 -0.0003144518       3 (A1) A      1 (A1) B    ->    2 (B1) A      2 (B1) B     
  0.0003144518       1 (A1) A      3 (A1) B    ->    2 (B1) B      2 (B1) A     
  0.0003144518       3 (A1) A      1 (A1) B    ->    2 (B1) B      2 (B1) A     
  0.0003144518       3 (A1) B      1 (A1) A    ->    2 (B1) A      2 (B1) B     
  0.0003144518       1 (A1) B      3 (A1) A    ->    2 (B1) A      2 (B1) B     
 -0.0003144518       1 (A1) B      3 (A1) A    ->    2 (B1) B      2 (B1) A     
 -0.0003144518       3 (A1) B      1 (A1) A    ->    2 (B1) B      2 (B1) A     
 -0.0002049035       1 (A1) A      1 (A1) B    ->    4 (A1) A      4 (A1) B     
  0.0002049035       1 (A1) A      1 (A1) B    ->    4 (A1) B      4 (A1) A     
  0.0002049035       1 (A1) B      1 (A1) A    ->    4 (A1) A      4 (A1) B     
 -0.0002049035       1 (A1) B      1 (A1) A    ->    4 (A1) B      4 (A1) A     
 -0.0001986206       1 (A1) A      1 (B1) B    ->    2 (B1) A      4 (A1) B     
  0.0001986206       1 (A1) A      1 (B1) B    ->    4 (A1) B      2 (B1) A     
 -0.0001986206       1 (B1) A      1 (A1) B    ->    4 (A1) A      2 (B1) B     
  0.0001986206       1 (B1) A      1 (A1) B    ->    2 (B1) B      4 (A1) A     
  0.0001986206       1 (A1) B      1 (B1) A    ->    4 (A1) A      2 (B1) B     
 -0.0001986206       1 (A1) B      1 (B1) A    ->    2 (B1) B      4 (A1) A     
  0.0001986206       1 (B1) B      1 (A1) A    ->    2 (B1) A      4 (A1) B     
 -0.0001986206       1 (B1) B      1 (A1) A    ->    4 (A1) B      2 (B1) A     
  0.0001474654       1 (A1) A      2 (A1) B    ->    2 (B1) A      2 (B1) B     
  0.0001474654       2 (A1) A      1 (A1) B    ->    2 (B1) A      2 (B1) B     
 -0.0001474654       1 (A1) A      2 (A1) B    ->    2 (B1) B      2 (B1) A     
 -0.0001474654       2 (A1) A      1 (A1) B    ->    2 (B1) B      2 (B1) A     
 -0.0001474654       2 (A1) B      1 (A1) A    ->    2 (B1) A      2 (B1) B     
 -0.0001474654       1 (A1) B      2 (A1) A    ->    2 (B1) A      2 (B1) B     
  0.0001474654       1 (A1) B      2 (A1) A    ->    2 (B1) B      2 (B1) A     
  0.0001474654       2 (A1) B      1 (A1) A    ->    2 (B1) B      2 (B1) A     
  0.0001426957       1 (A1) A      1 (B1) A    ->    4 (A1) A      2 (B1) A     
 -0.0001426957       1 (A1) A      1 (B1) A    ->    2 (B1) A      4 (A1) A     
 -0.0001426957       1 (B1) A      1 (A1) A    ->    4 (A1) A      2 (B1) A     
  0.0001426957       1 (B1) A      1 (A1) A    ->    2 (B1) A      4 (A1) A     
  0.0001426957       1 (A1) B      1 (B1) B    ->    4 (A1) B      2 (B1) B     
 -0.0001426957       1 (A1) B      1 (B1) B    ->    2 (B1) B      4 (A1) B     
 -0.0001426957       1 (B1) B      1 (A1) B    ->    4 (A1) B      2 (B1) B     
  0.0001426957       1 (B1) B      1 (A1) B    ->    2 (B1) B      4 (A1) B     
 -0.0000668732       1 (A1) A      1 (A1) B    ->    2 (B1) A      2 (B1) B     
  0.0000668732       1 (A1) A      1 (A1) B    ->    2 (B1) B      2 (B1) A     
  0.0000668732       1 (A1) B      1 (A1) A    ->    2 (B1) A      2 (B1) B     
 -0.0000668732       1 (A1) B      1 (A1) A    ->    2 (B1) B      2 (B1) A     
 -0.0000557632       1 (A1) A      1 (B1) B    ->    4 (A1) A      2 (B1) B     
  0.0000557632       1 (A1) A      1 (B1) B    ->    2 (B1) B      4 (A1) A     
 -0.0000557632       1 (B1) A      1 (A1) B    ->    2 (B1) A      4 (A1) B     
  0.0000557632       1 (B1) A      1 (A1) B    ->    4 (A1) B      2 (B1) A     
  0.0000557632       1 (A1) B      1 (B1) A    ->    2 (B1) A      4 (A1) B     
 -0.0000557632       1 (A1) B      1 (B1) A    ->    4 (A1) B      2 (B1) A     
  0.0000557632       1 (B1) B      1 (A1) A    ->    4 (A1) A      2 (B1) B     
 -0.0000557632       1 (B1) B      1 (A1) A    ->    2 (B1) B      4 (A1) A     

              Summary of significant orbitals:

               Number  Type             Irrep      Energy
               1       Occ  Alpha       1 (A1)    -20.2559
               2       Occ  Alpha       2 (A1)     -1.4591
               4       Occ  Alpha       3 (A1)     -0.4975
               3       Occ  Alpha       1 (B1)     -0.7806
               5       Occ  Alpha       1 (B2)     -0.4401
               1       Occ  Beta        1 (A1)    -20.2559
               2       Occ  Beta        2 (A1)     -1.4591
               4       Occ  Beta        3 (A1)     -0.4975
               3       Occ  Beta        1 (B1)     -0.7806
               5       Occ  Beta        1 (B2)     -0.4401
               6       Vir  Alpha       4 (A1)      0.8858
               7       Vir  Alpha       2 (B1)      1.1138
               6       Vir  Beta        4 (A1)      0.8858
               7       Vir  Beta        2 (B1)      1.1138


 EEs and amplitudes of EOMEE has be exported to fchk file
Running a double precision version
      EOM-CCSD/MP2 left amplitudes will be solved using Davidson.
        Amplitudes will be solved using MOM  algorithm.
     Hard-coded thresholds: 
     LinDepThresh=1.00e-15  NormThresh=1.00e-06  ReorthogonThresh=1.00e-02

      Roots     MaxVec    MaxIter   Precond   Conv      Shift    
      1         120       60        1         1.00e-05  0.00e+00  
 ------------------------------------------------------------------------------
      Iter ConvRoots NVecs ResNorm Current eigenvalues (eV)
 ------------------------------------------------------------------------------
      0    0      1     1.11e-04   23.7276   
      1    0      2     1.73e-04   23.7276   
      2    1      3     4.28e-06   23.7276*  

     Davidson procedure converged

 Excited state properties for  EOMEE-CCSD transition 1/A1
 Dipole moment (a.u.): 0.319316 (X 0.000000, Y 0.000000, Z 0.319316)
 R-squared (a.u.): 16.980613 (XX 7.015233, YY 4.701967, ZZ 5.263414)
 Gauge origin (a.u.): (0.000000, 0.000000, 0.000000)
 Angular momentum (a.u.) against gauge origin: 
 (X 0.000000i, Y 0.000000i, Z 0.000000i)
 Traces of the OPDMs: Tr(AA) 5.000000, Tr(BB) 5.000000

        Solving for EOMEE-CCSD A2 singlet states.

Running a double precision version
        EOMEE-CCSD/MP2 right amplitudes will be solved using Davidson.
        Amplitudes will be solved using standard  algorithm.
     Hard-coded thresholds: 
     LinDepThresh=1.00e-15  NormThresh=1.00e-06  ReorthogonThresh=1.00e-02

      Roots     MaxVec    MaxIter   Precond   Conv      Shift    
      1         120       60        1         1.00e-05  0.00e+00  
 ------------------------------------------------------------------------------
      Iter ConvRoots NVecs ResNorm Current eigenvalues (eV)
 ------------------------------------------------------------------------------
      0    0      1     3.44e-02   26.1590   
      1    0      2     6.98e-03   25.5881   
      2    0      3     1.03e-03   25.5501   
      3    1      4     7.03e-06   25.5484*  

     Davidson procedure converged

 EOMEE transition 1/A2
 Total energy = -73.70476523 a.u.  Excitation energy = 25.54838341 eV.
 R0^2 = 0.0000  R1^2 = 0.9839  R2^2 = 0.0161  Res^2 = 7.03e-06
 Conv-d = yes

 Amplitude    Transitions between orbitals
  0.7014068951       1 (B2) A                  ->    2 (B1) A                   
  0.7014068951       1 (B2) B                  ->    2 (B1) B                   
 -0.0516320780       1 (B1) A      1 (B2) B    ->    2 (B1) A      2 (B1) B     
  0.0516320780       1 (B1) A      1 (B2) B    ->    2 (B1) B      2 (B1) A     
 -0.0516320780       1 (B2) A      1 (B1) B    ->    2 (B1) A      2 (B1) B     
  0.0516320780       1 (B2) A      1 (B1) B    ->    2 (B1) B      2 (B1) A     
  0.0516320780       1 (B1) B      1 (B2) A    ->    2 (B1) A      2 (B1) B     
 -0.0516320780       1 (B1) B      1 (B2) A    ->    2 (B1) B      2 (B1) A     
  0.0516320780       1 (B2) B      1 (B1) A    ->    2 (B1) A      2 (B1) B     
 -0.0516320780       1 (B2) B      1 (B1) A    ->    2 (B1) B      2 (B1) A     
  0.0370629548       2 (A1) A      1 (B2) B    ->    2 (B1) A      4 (A1) B     
 -0.0370629548       2 (A1) A      1 (B2) B    ->    4 (A1) B      2 (B1) A     
  0.0370629548       1 (B2) A      2 (A1) B    ->    4 (A1) A      2 (B1) B     
 -0.0370629548       1 (B2) A      2 (A1) B    ->    2 (B1) B      4 (A1) A     
 -0.0370629548       2 (A1) B      1 (B2) A    ->    4 (A1) A      2 (B1) B     
  0.0370629548       2 (A1) B      1 (B2) A    ->    2 (B1) B      4 (A1) A     
 -0.0370629548       1 (B2) B      2 (A1) A    ->    2 (B1) A      4 (A1) B     
  0.0370629548       1 (B2) B      2 (A1) A    ->    4 (A1) B      2 (B1) A     
 -0.0369602398       1 (B1) A      1 (B2) B    ->    4 (A1) A      4 (A1) B     
  0.0369602398       1 (B1) A      1 (B2) B    ->    4 (A1) B      4 (A1) A     
 -0.0369602398       1 (B2) A      1 (B1) B    ->    4 (A1) A      4 (A1) B     
  0.0369602398       1 (B2) A      1 (B1) B    ->    4 (A1) B      4 (A1) A     
  0.0369602398       1 (B1) B      1 (B2) A    ->    4 (A1) A      4 (A1) B     
 -0.0369602398       1 (B1) B      1 (B2) A    ->    4 (A1) B      4 (A1) A     
  0.0369602398       1 (B2) B      1 (B1) A    ->    4 (A1) A      4 (A1) B     
 -0.0369602398       1 (B2) B      1 (B1) A    ->    4 (A1) B      4 (A1) A     
  0.0347117292       2 (A1) A      1 (B2) B    ->    4 (A1) A      2 (B1) B     
 -0.0347117292       2 (A1) A      1 (B2) B    ->    2 (B1) B      4 (A1) A     
  0.0347117292       1 (B2) A      2 (A1) B    ->    2 (B1) A      4 (A1) B     
 -0.0347117292       1 (B2) A      2 (A1) B    ->    4 (A1) B      2 (B1) A     
 -0.0347117292       2 (A1) B      1 (B2) A    ->    2 (B1) A      4 (A1) B     
  0.0347117292       2 (A1) B      1 (B2) A    ->    4 (A1) B      2 (B1) A     
 -0.0347117292       1 (B2) B      2 (A1) A    ->    4 (A1) A      2 (B1) B     
  0.0347117292       1 (B2) B      2 (A1) A    ->    2 (B1) B      4 (A1) A     
 -0.0280780339       3 (A1) A      1 (B2) B    ->    2 (B1) A      4 (A1) B     
  0.0280780339       3 (A1) A      1 (B2) B    ->    4 (A1) B      2 (B1) A     
 -0.0280780339       1 (B2) A      3 (A1) B    ->    4 (A1) A      2 (B1) B     
  0.0280780339       1 (B2) A      3 (A1) B    ->    2 (B1) B      4 (A1) A     
  0.0280780339       3 (A1) B      1 (B2) A    ->    4 (A1) A      2 (B1) B     
 -0.0280780339       3 (A1) B      1 (B2) A    ->    2 (B1) B      4 (A1) A     
  0.0280780339       1 (B2) B      3 (A1) A    ->    2 (B1) A      4 (A1) B     
 -0.0280780339       1 (B2) B      3 (A1) A    ->    4 (A1) B      2 (B1) A     
 -0.0247415672       3 (A1) A      1 (B2) B    ->    4 (A1) A      2 (B1) B     
  0.0247415672       3 (A1) A      1 (B2) B    ->    2 (B1) B      4 (A1) A     
 -0.0247415672       1 (B2) A      3 (A1) B    ->    2 (B1) A      4 (A1) B     
  0.0247415672       1 (B2) A      3 (A1) B    ->    4 (A1) B      2 (B1) A     
  0.0247415672       3 (A1) B      1 (B2) A    ->    2 (B1) A      4 (A1) B     
 -0.0247415672       3 (A1) B      1 (B2) A    ->    4 (A1) B      2 (B1) A     
  0.0247415672       1 (B2) B      3 (A1) A    ->    4 (A1) A      2 (B1) B     
 -0.0247415672       1 (B2) B      3 (A1) A    ->    2 (B1) B      4 (A1) A     
  0.0033877445       3 (A1) A      1 (B2) A    ->    4 (A1) A      2 (B1) A     
 -0.0033877445       3 (A1) A      1 (B2) A    ->    2 (B1) A      4 (A1) A     
 -0.0033877445       1 (B2) A      3 (A1) A    ->    4 (A1) A      2 (B1) A     
  0.0033877445       1 (B2) A      3 (A1) A    ->    2 (B1) A      4 (A1) A     
  0.0033877445       3 (A1) B      1 (B2) B    ->    4 (A1) B      2 (B1) B     
 -0.0033877445       3 (A1) B      1 (B2) B    ->    2 (B1) B      4 (A1) B     
 -0.0033877445       1 (B2) B      3 (A1) B    ->    4 (A1) B      2 (B1) B     
  0.0033877445       1 (B2) B      3 (A1) B    ->    2 (B1) B      4 (A1) B     
 -0.0024078971       2 (A1) A      1 (B2) A    ->    4 (A1) A      2 (B1) A     
  0.0024078971       2 (A1) A      1 (B2) A    ->    2 (B1) A      4 (A1) A     
  0.0024078971       1 (B2) A      2 (A1) A    ->    4 (A1) A      2 (B1) A     
 -0.0024078971       1 (B2) A      2 (A1) A    ->    2 (B1) A      4 (A1) A     
 -0.0024078971       2 (A1) B      1 (B2) B    ->    4 (A1) B      2 (B1) B     
  0.0024078971       2 (A1) B      1 (B2) B    ->    2 (B1) B      4 (A1) B     
  0.0024078971       1 (B2) B      2 (A1) B    ->    4 (A1) B      2 (B1) B     
 -0.0024078971       1 (B2) B      2 (A1) B    ->    2 (B1) B      4 (A1) B     
 -0.0002205309       1 (A1) A      1 (B2) B    ->    2 (B1) A      4 (A1) B     
  0.0002205309       1 (A1) A      1 (B2) B    ->    4 (A1) B      2 (B1) A     
 -0.0002205309       1 (B2) A      1 (A1) B    ->    4 (A1) A      2 (B1) B     
  0.0002205309       1 (B2) A      1 (A1) B    ->    2 (B1) B      4 (A1) A     
  0.0002205309       1 (A1) B      1 (B2) A    ->    4 (A1) A      2 (B1) B     
 -0.0002205309       1 (A1) B      1 (B2) A    ->    2 (B1) B      4 (A1) A     
  0.0002205309       1 (B2) B      1 (A1) A    ->    2 (B1) A      4 (A1) B     
 -0.0002205309       1 (B2) B      1 (A1) A    ->    4 (A1) B      2 (B1) A     
 -0.0001254969       1 (A1) A      1 (B2) B    ->    4 (A1) A      2 (B1) B     
  0.0001254969       1 (A1) A      1 (B2) B    ->    2 (B1) B      4 (A1) A     
 -0.0001254969       1 (B2) A      1 (A1) B    ->    2 (B1) A      4 (A1) B     
  0.0001254969       1 (B2) A      1 (A1) B    ->    4 (A1) B      2 (B1) A     
  0.0001254969       1 (A1) B      1 (B2) A    ->    2 (B1) A      4 (A1) B     
 -0.0001254969       1 (A1) B      1 (B2) A    ->    4 (A1) B      2 (B1) A     
  0.0001254969       1 (B2) B      1 (A1) A    ->    4 (A1) A      2 (B1) B     
 -0.0001254969       1 (B2) B      1 (A1) A    ->    2 (B1) B      4 (A1) A     
  0.0000980372       1 (A1) A      1 (B2) A    ->    4 (A1) A      2 (B1) A     
 -0.0000980372       1 (A1) A      1 (B2) A    ->    2 (B1) A      4 (A1) A     
 -0.0000980372       1 (B2) A      1 (A1) A    ->    4 (A1) A      2 (B1) A     
  0.0000980372       1 (B2) A      1 (A1) A    ->    2 (B1) A      4 (A1) A     
  0.0000980372       1 (A1) B      1 (B2) B    ->    4 (A1) B      2 (B1) B     
 -0.0000980372       1 (A1) B      1 (B2) B    ->    2 (B1) B      4 (A1) B     
 -0.0000980372       1 (B2) B      1 (A1) B    ->    4 (A1) B      2 (B1) B     
  0.0000980372       1 (B2) B      1 (A1) B    ->    2 (B1) B      4 (A1) B     

              Summary of significant orbitals:

               Number  Type             Irrep      Energy
               1       Occ  Alpha       1 (A1)    -20.2559
               2       Occ  Alpha       2 (A1)     -1.4591
               4       Occ  Alpha       3 (A1)     -0.4975
               3       Occ  Alpha       1 (B1)     -0.7806
               5       Occ  Alpha       1 (B2)     -0.4401
               1       Occ  Beta        1 (A1)    -20.2559
               2       Occ  Beta        2 (A1)     -1.4591
               4       Occ  Beta        3 (A1)     -0.4975
               3       Occ  Beta        1 (B1)     -0.7806
               5       Occ  Beta        1 (B2)     -0.4401
               6       Vir  Alpha       4 (A1)      0.8858
               7       Vir  Alpha       2 (B1)      1.1138
               6       Vir  Beta        4 (A1)      0.8858
               7       Vir  Beta        2 (B1)      1.1138


 EEs and amplitudes of EOMEE has be exported to fchk file
Running a double precision version
      EOM-CCSD/MP2 left amplitudes will be solved using Davidson.
        Amplitudes will be solved using MOM  algorithm.
     Hard-coded thresholds: 
     LinDepThresh=1.00e-15  NormThresh=1.00e-06  ReorthogonThresh=1.00e-02

      Roots     MaxVec    MaxIter   Precond   Conv      Shift    
      1         120       60        1         1.00e-05  0.00e+00  
 ------------------------------------------------------------------------------
      Iter ConvRoots NVecs ResNorm Current eigenvalues (eV)
 ------------------------------------------------------------------------------
      0    0      1     4.94e-05   25.5484   
      1    0      2     1.52e-04   25.5483   
      2    1      3     5.64e-07   25.5483*  

     Davidson procedure converged

 Excited state properties for  EOMEE-CCSD transition 1/A2
 Dipole moment (a.u.): 0.315223 (X 0.000000, Y 0.000000, Z -0.315223)
 R-squared (a.u.): 16.335439 (XX 6.946366, YY 3.817401, ZZ 5.571672)
 Gauge origin (a.u.): (0.000000, 0.000000, 0.000000)
 Angular momentum (a.u.) against gauge origin: 
 (X 0.000000i, Y 0.000000i, Z 0.000000i)
 Traces of the OPDMs: Tr(AA) 5.000000, Tr(BB) 5.000000

        Solving for EOMEE-CCSD B1 singlet states.

Running a double precision version
        EOMEE-CCSD/MP2 right amplitudes will be solved using Davidson.
        Amplitudes will be solved using standard  algorithm.
     Hard-coded thresholds: 
     LinDepThresh=1.00e-15  NormThresh=1.00e-06  ReorthogonThresh=1.00e-02

      Roots     MaxVec    MaxIter   Precond   Conv      Shift    
      1         120       60        1         1.00e-05  0.00e+00  
 ------------------------------------------------------------------------------
      Iter ConvRoots NVecs ResNorm Current eigenvalues (eV)
 ------------------------------------------------------------------------------
      0    0      1     4.70e-02   30.0872   
      1    0      2     1.33e-01   29.6070   
      2    0      3     5.55e-03   29.1702   
      3    0      4     1.70e-03   29.0831   
      4    0      5     9.31e-04   29.0586   
      5    0      6     3.56e-05   29.0561   
      6    1      7     6.27e-07   29.0559*  

     Davidson procedure converged

 EOMEE transition 1/B1
 Total energy = -73.57586735 a.u.  Excitation energy = 29.05587314 eV.
 R0^2 = 0.0000  R1^2 = 0.9793  R2^2 = 0.0207  Res^2 = 6.27e-07
 Conv-d = yes

 Amplitude    Transitions between orbitals
  0.6760063722       3 (A1) A                  ->    2 (B1) A                   
  0.6760063722       3 (A1) B                  ->    2 (B1) B                   
 -0.1806448011       1 (B1) A                  ->    4 (A1) A                   
 -0.1806448011       1 (B1) B                  ->    4 (A1) B                   
 -0.0068901810       2 (A1) A                  ->    2 (B1) A                   
 -0.0068901810       2 (A1) B                  ->    2 (B1) B                   
  0.0012678100       1 (A1) A                  ->    2 (B1) A                   
  0.0012678100       1 (A1) B                  ->    2 (B1) B                   
 -0.0585359327       3 (A1) A      3 (A1) B    ->    4 (A1) A      2 (B1) B     
 -0.0585359327       3 (A1) A      3 (A1) B    ->    2 (B1) A      4 (A1) B     
  0.0585359327       3 (A1) A      3 (A1) B    ->    4 (A1) B      2 (B1) A     
  0.0585359327       3 (A1) A      3 (A1) B    ->    2 (B1) B      4 (A1) A     
  0.0585359327       3 (A1) B      3 (A1) A    ->    4 (A1) A      2 (B1) B     
  0.0585359327       3 (A1) B      3 (A1) A    ->    2 (B1) A      4 (A1) B     
 -0.0585359327       3 (A1) B      3 (A1) A    ->    4 (A1) B      2 (B1) A     
 -0.0585359327       3 (A1) B      3 (A1) A    ->    2 (B1) B      4 (A1) A     
 -0.0506662166       3 (A1) A      1 (B1) B    ->    2 (B1) A      2 (B1) B     
  0.0506662166       3 (A1) A      1 (B1) B    ->    2 (B1) B      2 (B1) A     
 -0.0506662166       1 (B1) A      3 (A1) B    ->    2 (B1) A      2 (B1) B     
  0.0506662166       1 (B1) A      3 (A1) B    ->    2 (B1) B      2 (B1) A     
  0.0506662166       3 (A1) B      1 (B1) A    ->    2 (B1) A      2 (B1) B     
 -0.0506662166       3 (A1) B      1 (B1) A    ->    2 (B1) B      2 (B1) A     
  0.0506662166       1 (B1) B      3 (A1) A    ->    2 (B1) A      2 (B1) B     
 -0.0506662166       1 (B1) B      3 (A1) A    ->    2 (B1) B      2 (B1) A     
 -0.0372028520       3 (A1) A      1 (B1) B    ->    4 (A1) A      4 (A1) B     
  0.0372028520       3 (A1) A      1 (B1) B    ->    4 (A1) B      4 (A1) A     
 -0.0372028520       1 (B1) A      3 (A1) B    ->    4 (A1) A      4 (A1) B     
  0.0372028520       1 (B1) A      3 (A1) B    ->    4 (A1) B      4 (A1) A     
  0.0372028520       3 (A1) B      1 (B1) A    ->    4 (A1) A      4 (A1) B     
 -0.0372028520       3 (A1) B      1 (B1) A    ->    4 (A1) B      4 (A1) A     
  0.0372028520       1 (B1) B      3 (A1) A    ->    4 (A1) A      4 (A1) B     
 -0.0372028520       1 (B1) B      3 (A1) A    ->    4 (A1) B      4 (A1) A     
 -0.0304681408       2 (A1) A      1 (B1) B    ->    2 (B1) A      2 (B1) B     
  0.0304681408       2 (A1) A      1 (B1) B    ->    2 (B1) B      2 (B1) A     
 -0.0304681408       1 (B1) A      2 (A1) B    ->    2 (B1) A      2 (B1) B     
  0.0304681408       1 (B1) A      2 (A1) B    ->    2 (B1) B      2 (B1) A     
  0.0304681408       2 (A1) B      1 (B1) A    ->    2 (B1) A      2 (B1) B     
 -0.0304681408       2 (A1) B      1 (B1) A    ->    2 (B1) B      2 (B1) A     
  0.0304681408       1 (B1) B      2 (A1) A    ->    2 (B1) A      2 (B1) B     
 -0.0304681408       1 (B1) B      2 (A1) A    ->    2 (B1) B      2 (B1) A     
  0.0268208694       2 (A1) A      3 (A1) B    ->    4 (A1) A      2 (B1) B     
  0.0268208694       3 (A1) A      2 (A1) B    ->    2 (B1) A      4 (A1) B     
 -0.0268208694       3 (A1) A      2 (A1) B    ->    4 (A1) B      2 (B1) A     
 -0.0268208694       2 (A1) A      3 (A1) B    ->    2 (B1) B      4 (A1) A     
 -0.0268208694       3 (A1) B      2 (A1) A    ->    4 (A1) A      2 (B1) B     
 -0.0268208694       2 (A1) B      3 (A1) A    ->    2 (B1) A      4 (A1) B     
  0.0268208694       2 (A1) B      3 (A1) A    ->    4 (A1) B      2 (B1) A     
  0.0268208694       3 (A1) B      2 (A1) A    ->    2 (B1) B      4 (A1) A     
  0.0235007487       1 (B1) A      1 (B1) B    ->    4 (A1) A      2 (B1) B     
  0.0235007487       1 (B1) A      1 (B1) B    ->    2 (B1) A      4 (A1) B     
 -0.0235007487       1 (B1) A      1 (B1) B    ->    4 (A1) B      2 (B1) A     
 -0.0235007487       1 (B1) A      1 (B1) B    ->    2 (B1) B      4 (A1) A     
 -0.0235007487       1 (B1) B      1 (B1) A    ->    4 (A1) A      2 (B1) B     
 -0.0235007487       1 (B1) B      1 (B1) A    ->    2 (B1) A      4 (A1) B     
  0.0235007487       1 (B1) B      1 (B1) A    ->    4 (A1) B      2 (B1) A     
  0.0235007487       1 (B1) B      1 (B1) A    ->    2 (B1) B      4 (A1) A     
  0.0212096297       3 (A1) A      2 (A1) B    ->    4 (A1) A      2 (B1) B     
  0.0212096297       2 (A1) A      3 (A1) B    ->    2 (B1) A      4 (A1) B     
 -0.0212096297       2 (A1) A      3 (A1) B    ->    4 (A1) B      2 (B1) A     
 -0.0212096297       3 (A1) A      2 (A1) B    ->    2 (B1) B      4 (A1) A     
 -0.0212096297       2 (A1) B      3 (A1) A    ->    4 (A1) A      2 (B1) B     
 -0.0212096297       3 (A1) B      2 (A1) A    ->    2 (B1) A      4 (A1) B     
  0.0212096297       3 (A1) B      2 (A1) A    ->    4 (A1) B      2 (B1) A     
  0.0212096297       2 (A1) B      3 (A1) A    ->    2 (B1) B      4 (A1) A     
  0.0154675232       1 (B2) A      1 (B2) B    ->    4 (A1) A      2 (B1) B     
  0.0154675232       1 (B2) A      1 (B2) B    ->    2 (B1) A      4 (A1) B     
 -0.0154675232       1 (B2) A      1 (B2) B    ->    4 (A1) B      2 (B1) A     
 -0.0154675232       1 (B2) A      1 (B2) B    ->    2 (B1) B      4 (A1) A     
 -0.0154675232       1 (B2) B      1 (B2) A    ->    4 (A1) A      2 (B1) B     
 -0.0154675232       1 (B2) B      1 (B2) A    ->    2 (B1) A      4 (A1) B     
  0.0154675232       1 (B2) B      1 (B2) A    ->    4 (A1) B      2 (B1) A     
  0.0154675232       1 (B2) B      1 (B2) A    ->    2 (B1) B      4 (A1) A     
  0.0056511107       2 (A1) A      3 (A1) A    ->    4 (A1) A      2 (B1) A     
 -0.0056511107       3 (A1) A      2 (A1) A    ->    4 (A1) A      2 (B1) A     
 -0.0056511107       2 (A1) A      3 (A1) A    ->    2 (B1) A      4 (A1) A     
  0.0056511107       3 (A1) A      2 (A1) A    ->    2 (B1) A      4 (A1) A     
  0.0056511107       2 (A1) B      3 (A1) B    ->    4 (A1) B      2 (B1) B     
 -0.0056511107       3 (A1) B      2 (A1) B    ->    4 (A1) B      2 (B1) B     
 -0.0056511107       2 (A1) B      3 (A1) B    ->    2 (B1) B      4 (A1) B     
  0.0056511107       3 (A1) B      2 (A1) B    ->    2 (B1) B      4 (A1) B     
  0.0054804549       2 (A1) A      1 (B1) B    ->    4 (A1) A      4 (A1) B     
 -0.0054804549       2 (A1) A      1 (B1) B    ->    4 (A1) B      4 (A1) A     
  0.0054804549       1 (B1) A      2 (A1) B    ->    4 (A1) A      4 (A1) B     
 -0.0054804549       1 (B1) A      2 (A1) B    ->    4 (A1) B      4 (A1) A     
 -0.0054804549       2 (A1) B      1 (B1) A    ->    4 (A1) A      4 (A1) B     
  0.0054804549       2 (A1) B      1 (B1) A    ->    4 (A1) B      4 (A1) A     
 -0.0054804549       1 (B1) B      2 (A1) A    ->    4 (A1) A      4 (A1) B     
  0.0054804549       1 (B1) B      2 (A1) A    ->    4 (A1) B      4 (A1) A     
 -0.0021770524       2 (A1) A      2 (A1) B    ->    4 (A1) A      2 (B1) B     
 -0.0021770524       2 (A1) A      2 (A1) B    ->    2 (B1) A      4 (A1) B     
  0.0021770524       2 (A1) A      2 (A1) B    ->    4 (A1) B      2 (B1) A     
  0.0021770524       2 (A1) A      2 (A1) B    ->    2 (B1) B      4 (A1) A     
  0.0021770524       2 (A1) B      2 (A1) A    ->    4 (A1) A      2 (B1) B     
  0.0021770524       2 (A1) B      2 (A1) A    ->    2 (B1) A      4 (A1) B     
 -0.0021770524       2 (A1) B      2 (A1) A    ->    4 (A1) B      2 (B1) A     
 -0.0021770524       2 (A1) B      2 (A1) A    ->    2 (B1) B      4 (A1) A     
  0.0004313753       1 (A1) A      2 (A1) B    ->    4 (A1) A      2 (B1) B     
  0.0004313753       2 (A1) A      1 (A1) B    ->    2 (B1) A      4 (A1) B     
 -0.0004313753       2 (A1) A      1 (A1) B    ->    4 (A1) B      2 (B1) A     
 -0.0004313753       1 (A1) A      2 (A1) B    ->    2 (B1) B      4 (A1) A     
 -0.0004313753       2 (A1) B      1 (A1) A    ->    4 (A1) A      2 (B1) B     
 -0.0004313753       1 (A1) B      2 (A1) A    ->    2 (B1) A      4 (A1) B     
  0.0004313753       1 (A1) B      2 (A1) A    ->    4 (A1) B      2 (B1) A     
  0.0004313753       2 (A1) B      1 (A1) A    ->    2 (B1) B      4 (A1) A     
  0.0003568042       2 (A1) A      1 (A1) B    ->    4 (A1) A      2 (B1) B     
  0.0003568042       1 (A1) A      2 (A1) B    ->    2 (B1) A      4 (A1) B     
 -0.0003568042       1 (A1) A      2 (A1) B    ->    4 (A1) B      2 (B1) A     
 -0.0003568042       2 (A1) A      1 (A1) B    ->    2 (B1) B      4 (A1) A     
 -0.0003568042       1 (A1) B      2 (A1) A    ->    4 (A1) A      2 (B1) B     
 -0.0003568042       2 (A1) B      1 (A1) A    ->    2 (B1) A      4 (A1) B     
  0.0003568042       2 (A1) B      1 (A1) A    ->    4 (A1) B      2 (B1) A     
  0.0003568042       1 (A1) B      2 (A1) A    ->    2 (B1) B      4 (A1) A     
  0.0002111317       1 (A1) A      3 (A1) B    ->    4 (A1) A      2 (B1) B     
  0.0002111317       3 (A1) A      1 (A1) B    ->    2 (B1) A      4 (A1) B     
 -0.0002111317       3 (A1) A      1 (A1) B    ->    4 (A1) B      2 (B1) A     
 -0.0002111317       1 (A1) A      3 (A1) B    ->    2 (B1) B      4 (A1) A     
 -0.0002111317       3 (A1) B      1 (A1) A    ->    4 (A1) A      2 (B1) B     
 -0.0002111317       1 (A1) B      3 (A1) A    ->    2 (B1) A      4 (A1) B     
  0.0002111317       1 (A1) B      3 (A1) A    ->    4 (A1) B      2 (B1) A     
  0.0002111317       3 (A1) B      1 (A1) A    ->    2 (B1) B      4 (A1) A     
  0.0001433770       1 (A1) A      1 (A1) B    ->    4 (A1) A      2 (B1) B     
  0.0001433770       1 (A1) A      1 (A1) B    ->    2 (B1) A      4 (A1) B     
 -0.0001433770       1 (A1) A      1 (A1) B    ->    4 (A1) B      2 (B1) A     
 -0.0001433770       1 (A1) A      1 (A1) B    ->    2 (B1) B      4 (A1) A     
 -0.0001433770       1 (A1) B      1 (A1) A    ->    4 (A1) A      2 (B1) B     
 -0.0001433770       1 (A1) B      1 (A1) A    ->    2 (B1) A      4 (A1) B     
  0.0001433770       1 (A1) B      1 (A1) A    ->    4 (A1) B      2 (B1) A     
  0.0001433770       1 (A1) B      1 (A1) A    ->    2 (B1) B      4 (A1) A     
  0.0001398387       1 (A1) A      3 (A1) A    ->    4 (A1) A      2 (B1) A     
 -0.0001398387       3 (A1) A      1 (A1) A    ->    4 (A1) A      2 (B1) A     
 -0.0001398387       1 (A1) A      3 (A1) A    ->    2 (B1) A      4 (A1) A     
  0.0001398387       3 (A1) A      1 (A1) A    ->    2 (B1) A      4 (A1) A     
  0.0001398387       1 (A1) B      3 (A1) B    ->    4 (A1) B      2 (B1) B     
 -0.0001398387       3 (A1) B      1 (A1) B    ->    4 (A1) B      2 (B1) B     
 -0.0001398387       1 (A1) B      3 (A1) B    ->    2 (B1) B      4 (A1) B     
  0.0001398387       3 (A1) B      1 (A1) B    ->    2 (B1) B      4 (A1) B     
  0.0001311245       1 (A1) A      1 (B1) B    ->    2 (B1) A      2 (B1) B     
 -0.0001311245       1 (A1) A      1 (B1) B    ->    2 (B1) B      2 (B1) A     
  0.0001311245       1 (B1) A      1 (A1) B    ->    2 (B1) A      2 (B1) B     
 -0.0001311245       1 (B1) A      1 (A1) B    ->    2 (B1) B      2 (B1) A     
 -0.0001311245       1 (A1) B      1 (B1) A    ->    2 (B1) A      2 (B1) B     
  0.0001311245       1 (A1) B      1 (B1) A    ->    2 (B1) B      2 (B1) A     
 -0.0001311245       1 (B1) B      1 (A1) A    ->    2 (B1) A      2 (B1) B     
  0.0001311245       1 (B1) B      1 (A1) A    ->    2 (B1) B      2 (B1) A     
  0.0000738769       1 (A1) A      2 (A1) A    ->    4 (A1) A      2 (B1) A     
 -0.0000738769       2 (A1) A      1 (A1) A    ->    4 (A1) A      2 (B1) A     
 -0.0000738769       1 (A1) A      2 (A1) A    ->    2 (B1) A      4 (A1) A     
  0.0000738769       2 (A1) A      1 (A1) A    ->    2 (B1) A      4 (A1) A     
  0.0000738769       1 (A1) B      2 (A1) B    ->    4 (A1) B      2 (B1) B     
 -0.0000738769       2 (A1) B      1 (A1) B    ->    4 (A1) B      2 (B1) B     
 -0.0000738769       1 (A1) B      2 (A1) B    ->    2 (B1) B      4 (A1) B     
  0.0000738769       2 (A1) B      1 (A1) B    ->    2 (B1) B      4 (A1) B     
 -0.0000721694       1 (A1) A      1 (B1) B    ->    4 (A1) A      4 (A1) B     
  0.0000721694       1 (A1) A      1 (B1) B    ->    4 (A1) B      4 (A1) A     
 -0.0000721694       1 (B1) A      1 (A1) B    ->    4 (A1) A      4 (A1) B     
  0.0000721694       1 (B1) A      1 (A1) B    ->    4 (A1) B      4 (A1) A     
  0.0000721694       1 (A1) B      1 (B1) A    ->    4 (A1) A      4 (A1) B     
 -0.0000721694       1 (A1) B      1 (B1) A    ->    4 (A1) B      4 (A1) A     
  0.0000721694       1 (B1) B      1 (A1) A    ->    4 (A1) A      4 (A1) B     
 -0.0000721694       1 (B1) B      1 (A1) A    ->    4 (A1) B      4 (A1) A     
  0.0000716186       3 (A1) A      1 (A1) B    ->    4 (A1) A      2 (B1) B     
  0.0000716186       1 (A1) A      3 (A1) B    ->    2 (B1) A      4 (A1) B     
 -0.0000716186       1 (A1) A      3 (A1) B    ->    4 (A1) B      2 (B1) A     
 -0.0000716186       3 (A1) A      1 (A1) B    ->    2 (B1) B      4 (A1) A     
 -0.0000716186       1 (A1) B      3 (A1) A    ->    4 (A1) A      2 (B1) B     
 -0.0000716186       3 (A1) B      1 (A1) A    ->    2 (B1) A      4 (A1) B     
  0.0000716186       3 (A1) B      1 (A1) A    ->    4 (A1) B      2 (B1) A     
  0.0000716186       1 (A1) B      3 (A1) A    ->    2 (B1) B      4 (A1) A     

              Summary of significant orbitals:

               Number  Type             Irrep      Energy
               1       Occ  Alpha       1 (A1)    -20.2559
               2       Occ  Alpha       2 (A1)     -1.4591
               4       Occ  Alpha       3 (A1)     -0.4975
               3       Occ  Alpha       1 (B1)     -0.7806
               5       Occ  Alpha       1 (B2)     -0.4401
               1       Occ  Beta        1 (A1)    -20.2559
               2       Occ  Beta        2 (A1)     -1.4591
               4       Occ  Beta        3 (A1)     -0.4975
               3       Occ  Beta        1 (B1)     -0.7806
               5       Occ  Beta        1 (B2)     -0.4401
               6       Vir  Alpha       4 (A1)      0.8858
               7       Vir  Alpha       2 (B1)      1.1138
               6       Vir  Beta        4 (A1)      0.8858
               7       Vir  Beta        2 (B1)      1.1138


 EEs and amplitudes of EOMEE has be exported to fchk file
Running a double precision version
      EOM-CCSD/MP2 left amplitudes will be solved using Davidson.
        Amplitudes will be solved using MOM  algorithm.
     Hard-coded thresholds: 
     LinDepThresh=1.00e-15  NormThresh=1.00e-06  ReorthogonThresh=1.00e-02

      Roots     MaxVec    MaxIter   Precond   Conv      Shift    
      1         120       60        1         1.00e-05  0.00e+00  
 ------------------------------------------------------------------------------
      Iter ConvRoots NVecs ResNorm Current eigenvalues (eV)
 ------------------------------------------------------------------------------
      0    0      1     6.88e-05   29.0559   
      1    0      2     2.65e-04   29.0559   
      2    1      3     2.85e-06   29.0559*  

     Davidson procedure converged

 Excited state properties for  EOMEE-CCSD transition 1/B1
 Dipole moment (a.u.): 0.020041 (X 0.000000, Y 0.000000, Z -0.020041)
 R-squared (a.u.): 16.066604 (XX 6.789553, YY 4.383198, ZZ 4.893853)
 Gauge origin (a.u.): (0.000000, 0.000000, 0.000000)
 Angular momentum (a.u.) against gauge origin: 
 (X 0.000000i, Y 0.000000i, Z 0.000000i)
 Traces of the OPDMs: Tr(AA) 5.000000, Tr(BB) 5.000000

        Solving for EOMEE-CCSD B2 singlet states.

Running a double precision version
        EOMEE-CCSD/MP2 right amplitudes will be solved using Davidson.
        Amplitudes will be solved using standard  algorithm.
     Hard-coded thresholds: 
     LinDepThresh=1.00e-15  NormThresh=1.00e-06  ReorthogonThresh=1.00e-02

      Roots     MaxVec    MaxIter   Precond   Conv      Shift    
      1         120       60        1         1.00e-05  0.00e+00  
 ------------------------------------------------------------------------------
      Iter ConvRoots NVecs ResNorm Current eigenvalues (eV)
 ------------------------------------------------------------------------------
      0    0      1     5.30e-02   22.5896   
      1    0      2     3.59e-02   21.7717   
      2    0      3     5.81e-04   21.7004   
      3    1      4     3.52e-06   21.6977*  

     Davidson procedure converged

 EOMEE transition 1/B2
 Total energy = -73.84627551 a.u.  Excitation energy = 21.69769286 eV.
 R0^2 = 0.0000  R1^2 = 0.9798  R2^2 = 0.0202  Res^2 = 3.52e-06
 Conv-d = yes

 Amplitude    Transitions between orbitals
  0.6999443763       1 (B2) A                  ->    4 (A1) A                   
  0.6999443763       1 (B2) B                  ->    4 (A1) B                   
 -0.0629502477       1 (B1) A      1 (B2) B    ->    2 (B1) A      4 (A1) B     
  0.0629502477       1 (B1) A      1 (B2) B    ->    4 (A1) B      2 (B1) A     
 -0.0629502477       1 (B2) A      1 (B1) B    ->    4 (A1) A      2 (B1) B     
  0.0629502477       1 (B2) A      1 (B1) B    ->    2 (B1) B      4 (A1) A     
  0.0629502477       1 (B1) B      1 (B2) A    ->    4 (A1) A      2 (B1) B     
 -0.0629502477       1 (B1) B      1 (B2) A    ->    2 (B1) B      4 (A1) A     
  0.0629502477       1 (B2) B      1 (B1) A    ->    2 (B1) A      4 (A1) B     
 -0.0629502477       1 (B2) B      1 (B1) A    ->    4 (A1) B      2 (B1) A     
  0.0537138566       2 (A1) A      1 (B2) B    ->    4 (A1) A      4 (A1) B     
 -0.0537138566       2 (A1) A      1 (B2) B    ->    4 (A1) B      4 (A1) A     
  0.0537138566       1 (B2) A      2 (A1) B    ->    4 (A1) A      4 (A1) B     
 -0.0537138566       1 (B2) A      2 (A1) B    ->    4 (A1) B      4 (A1) A     
 -0.0537138566       2 (A1) B      1 (B2) A    ->    4 (A1) A      4 (A1) B     
  0.0537138566       2 (A1) B      1 (B2) A    ->    4 (A1) B      4 (A1) A     
 -0.0537138566       1 (B2) B      2 (A1) A    ->    4 (A1) A      4 (A1) B     
  0.0537138566       1 (B2) B      2 (A1) A    ->    4 (A1) B      4 (A1) A     
 -0.0427981629       1 (B1) A      1 (B2) B    ->    4 (A1) A      2 (B1) B     
  0.0427981629       1 (B1) A      1 (B2) B    ->    2 (B1) B      4 (A1) A     
 -0.0427981629       1 (B2) A      1 (B1) B    ->    2 (B1) A      4 (A1) B     
  0.0427981629       1 (B2) A      1 (B1) B    ->    4 (A1) B      2 (B1) A     
  0.0427981629       1 (B1) B      1 (B2) A    ->    2 (B1) A      4 (A1) B     
 -0.0427981629       1 (B1) B      1 (B2) A    ->    4 (A1) B      2 (B1) A     
  0.0427981629       1 (B2) B      1 (B1) A    ->    4 (A1) A      2 (B1) B     
 -0.0427981629       1 (B2) B      1 (B1) A    ->    2 (B1) B      4 (A1) A     
 -0.0278093419       3 (A1) A      1 (B2) B    ->    2 (B1) A      2 (B1) B     
  0.0278093419       3 (A1) A      1 (B2) B    ->    2 (B1) B      2 (B1) A     
 -0.0278093419       1 (B2) A      3 (A1) B    ->    2 (B1) A      2 (B1) B     
  0.0278093419       1 (B2) A      3 (A1) B    ->    2 (B1) B      2 (B1) A     
  0.0278093419       3 (A1) B      1 (B2) A    ->    2 (B1) A      2 (B1) B     
 -0.0278093419       3 (A1) B      1 (B2) A    ->    2 (B1) B      2 (B1) A     
  0.0278093419       1 (B2) B      3 (A1) A    ->    2 (B1) A      2 (B1) B     
 -0.0278093419       1 (B2) B      3 (A1) A    ->    2 (B1) B      2 (B1) A     
  0.0201109253       1 (B1) A      1 (B2) A    ->    4 (A1) A      2 (B1) A     
 -0.0201109253       1 (B1) A      1 (B2) A    ->    2 (B1) A      4 (A1) A     
 -0.0201109253       1 (B2) A      1 (B1) A    ->    4 (A1) A      2 (B1) A     
  0.0201109253       1 (B2) A      1 (B1) A    ->    2 (B1) A      4 (A1) A     
  0.0201109253       1 (B1) B      1 (B2) B    ->    4 (A1) B      2 (B1) B     
 -0.0201109253       1 (B1) B      1 (B2) B    ->    2 (B1) B      4 (A1) B     
 -0.0201109253       1 (B2) B      1 (B1) B    ->    4 (A1) B      2 (B1) B     
  0.0201109253       1 (B2) B      1 (B1) B    ->    2 (B1) B      4 (A1) B     
 -0.0115647051       3 (A1) A      1 (B2) B    ->    4 (A1) A      4 (A1) B     
  0.0115647051       3 (A1) A      1 (B2) B    ->    4 (A1) B      4 (A1) A     
 -0.0115647051       1 (B2) A      3 (A1) B    ->    4 (A1) A      4 (A1) B     
  0.0115647051       1 (B2) A      3 (A1) B    ->    4 (A1) B      4 (A1) A     
  0.0115647051       3 (A1) B      1 (B2) A    ->    4 (A1) A      4 (A1) B     
 -0.0115647051       3 (A1) B      1 (B2) A    ->    4 (A1) B      4 (A1) A     
  0.0115647051       1 (B2) B      3 (A1) A    ->    4 (A1) A      4 (A1) B     
 -0.0115647051       1 (B2) B      3 (A1) A    ->    4 (A1) B      4 (A1) A     
  0.0092951952       2 (A1) A      1 (B2) B    ->    2 (B1) A      2 (B1) B     
 -0.0092951952       2 (A1) A      1 (B2) B    ->    2 (B1) B      2 (B1) A     
  0.0092951952       1 (B2) A      2 (A1) B    ->    2 (B1) A      2 (B1) B     
 -0.0092951952       1 (B2) A      2 (A1) B    ->    2 (B1) B      2 (B1) A     
 -0.0092951952       2 (A1) B      1 (B2) A    ->    2 (B1) A      2 (B1) B     
  0.0092951952       2 (A1) B      1 (B2) A    ->    2 (B1) B      2 (B1) A     
 -0.0092951952       1 (B2) B      2 (A1) A    ->    2 (B1) A      2 (B1) B     
  0.0092951952       1 (B2) B      2 (A1) A    ->    2 (B1) B      2 (B1) A     
  0.0004449518       1 (A1) A      1 (B2) B    ->    2 (B1) A      2 (B1) B     
 -0.0004449518       1 (A1) A      1 (B2) B    ->    2 (B1) B      2 (B1) A     
  0.0004449518       1 (B2) A      1 (A1) B    ->    2 (B1) A      2 (B1) B     
 -0.0004449518       1 (B2) A      1 (A1) B    ->    2 (B1) B      2 (B1) A     
 -0.0004449518       1 (A1) B      1 (B2) A    ->    2 (B1) A      2 (B1) B     
  0.0004449518       1 (A1) B      1 (B2) A    ->    2 (B1) B      2 (B1) A     
 -0.0004449518       1 (B2) B      1 (A1) A    ->    2 (B1) A      2 (B1) B     
  0.0004449518       1 (B2) B      1 (A1) A    ->    2 (B1) B      2 (B1) A     
 -0.0003540597       1 (A1) A      1 (B2) B    ->    4 (A1) A      4 (A1) B     
  0.0003540597       1 (A1) A      1 (B2) B    ->    4 (A1) B      4 (A1) A     
 -0.0003540597       1 (B2) A      1 (A1) B    ->    4 (A1) A      4 (A1) B     
  0.0003540597       1 (B2) A      1 (A1) B    ->    4 (A1) B      4 (A1) A     
  0.0003540597       1 (A1) B      1 (B2) A    ->    4 (A1) A      4 (A1) B     
 -0.0003540597       1 (A1) B      1 (B2) A    ->    4 (A1) B      4 (A1) A     
  0.0003540597       1 (B2) B      1 (A1) A    ->    4 (A1) A      4 (A1) B     
 -0.0003540597       1 (B2) B      1 (A1) A    ->    4 (A1) B      4 (A1) A     

              Summary of significant orbitals:

               Number  Type             Irrep      Energy
               1       Occ  Alpha       1 (A1)    -20.2559
               2       Occ  Alpha       2 (A1)     -1.4591
               4       Occ  Alpha       3 (A1)     -0.4975
               3       Occ  Alpha       1 (B1)     -0.7806
               5       Occ  Alpha       1 (B2)     -0.4401
               1       Occ  Beta        1 (A1)    -20.2559
               2       Occ  Beta        2 (A1)     -1.4591
               4       Occ  Beta        3 (A1)     -0.4975
               3       Occ  Beta        1 (B1)     -0.7806
               5       Occ  Beta        1 (B2)     -0.4401
               6       Vir  Alpha       4 (A1)      0.8858
               7       Vir  Alpha       2 (B1)      1.1138
               6       Vir  Beta        4 (A1)      0.8858
               7       Vir  Beta        2 (B1)      1.1138


 EEs and amplitudes of EOMEE has be exported to fchk file
Running a double precision version
      EOM-CCSD/MP2 left amplitudes will be solved using Davidson.
        Amplitudes will be solved using MOM  algorithm.
     Hard-coded thresholds: 
     LinDepThresh=1.00e-15  NormThresh=1.00e-06  ReorthogonThresh=1.00e-02

      Roots     MaxVec    MaxIter   Precond   Conv      Shift    
      1         120       60        1         1.00e-05  0.00e+00  
 ------------------------------------------------------------------------------
      Iter ConvRoots NVecs ResNorm Current eigenvalues (eV)
 ------------------------------------------------------------------------------
      0    0      1     8.30e-05   21.6977   
      1    0      2     1.76e-04   21.6978   
      2    1      3     3.00e-07   21.6979*  

     Davidson procedure converged

 Excited state properties for  EOMEE-CCSD transition 1/B2
 Dipole moment (a.u.): 0.033844 (X 0.000000, Y 0.000000, Z -0.033844)
 R-squared (a.u.): 17.216251 (XX 7.090524, YY 4.153288, ZZ 5.972439)
 Gauge origin (a.u.): (0.000000, 0.000000, 0.000000)
 Angular momentum (a.u.) against gauge origin: 
 (X 0.000000i, Y 0.000000i, Z 0.000000i)
 Traces of the OPDMs: Tr(AA) 5.000000, Tr(BB) 5.000000

        Solving for EOMEE-CCSD A1 triplet states.

Running a double precision version
        EOMEE-CCSD/MP2 right amplitudes will be solved using Davidson.
        Amplitudes will be solved using standard  algorithm.
     Hard-coded thresholds: 
     LinDepThresh=1.00e-15  NormThresh=1.00e-06  ReorthogonThresh=1.00e-02

      Roots     MaxVec    MaxIter   Precond   Conv      Shift    
      1         120       60        1         1.00e-05  0.00e+00  
 ------------------------------------------------------------------------------
      Iter ConvRoots NVecs ResNorm Current eigenvalues (eV)
 ------------------------------------------------------------------------------
      0    0      1     4.28e-02   23.1178   
      1    0      2     1.08e-01   22.6551   
      2    0      3     9.21e-04   22.3775   
      3    0      4     1.28e-04   22.3658   
      4    0      5     3.51e-05   22.3652   
      5    1      6     1.05e-07   22.3651*  

     Davidson procedure converged

 EOMEE transition 1/A1
 Total energy = -73.82174918 a.u.  Excitation energy = 22.36508828 eV.
 R0^2 = 0.0000  R1^2 = 0.9873  R2^2 = 0.0127  Res^2 = 1.05e-07
 Conv-d = yes

 Amplitude    Transitions between orbitals
 -0.6996442319       3 (A1) A                  ->    4 (A1) A                   
  0.6996442319       3 (A1) B                  ->    4 (A1) B                   
  0.0518773708       2 (A1) A                  ->    4 (A1) A                   
 -0.0518773708       2 (A1) B                  ->    4 (A1) B                   
 -0.0380125699       1 (B1) A                  ->    2 (B1) A                   
  0.0380125699       1 (B1) B                  ->    2 (B1) B                   
 -0.0009313886       1 (A1) A                  ->    4 (A1) A                   
  0.0009313886       1 (A1) B                  ->    4 (A1) B                   
  0.0696902398       3 (A1) A      1 (B1) B    ->    4 (A1) A      2 (B1) B     
 -0.0696902398       3 (A1) A      1 (B1) B    ->    2 (B1) B      4 (A1) A     
 -0.0696902398       1 (B1) A      3 (A1) B    ->    2 (B1) A      4 (A1) B     
  0.0696902398       1 (B1) A      3 (A1) B    ->    4 (A1) B      2 (B1) A     
  0.0696902398       3 (A1) B      1 (B1) A    ->    2 (B1) A      4 (A1) B     
 -0.0696902398       3 (A1) B      1 (B1) A    ->    4 (A1) B      2 (B1) A     
 -0.0696902398       1 (B1) B      3 (A1) A    ->    4 (A1) A      2 (B1) B     
  0.0696902398       1 (B1) B      3 (A1) A    ->    2 (B1) B      4 (A1) A     
  0.0254867491       3 (A1) A      1 (B1) A    ->    4 (A1) A      2 (B1) A     
 -0.0254867491       3 (A1) A      1 (B1) A    ->    2 (B1) A      4 (A1) A     
 -0.0254867491       1 (B1) A      3 (A1) A    ->    4 (A1) A      2 (B1) A     
  0.0254867491       1 (B1) A      3 (A1) A    ->    2 (B1) A      4 (A1) A     
 -0.0254867491       3 (A1) B      1 (B1) B    ->    4 (A1) B      2 (B1) B     
  0.0254867491       3 (A1) B      1 (B1) B    ->    2 (B1) B      4 (A1) B     
  0.0254867491       1 (B1) B      3 (A1) B    ->    4 (A1) B      2 (B1) B     
 -0.0254867491       1 (B1) B      3 (A1) B    ->    2 (B1) B      4 (A1) B     
  0.0170041706       2 (A1) A      1 (B1) B    ->    4 (A1) A      2 (B1) B     
 -0.0170041706       2 (A1) A      1 (B1) B    ->    2 (B1) B      4 (A1) A     
 -0.0170041706       1 (B1) A      2 (A1) B    ->    2 (B1) A      4 (A1) B     
  0.0170041706       1 (B1) A      2 (A1) B    ->    4 (A1) B      2 (B1) A     
  0.0170041706       2 (A1) B      1 (B1) A    ->    2 (B1) A      4 (A1) B     
 -0.0170041706       2 (A1) B      1 (B1) A    ->    4 (A1) B      2 (B1) A     
 -0.0170041706       1 (B1) B      2 (A1) A    ->    4 (A1) A      2 (B1) B     
  0.0170041706       1 (B1) B      2 (A1) A    ->    2 (B1) B      4 (A1) A     
  0.0128167928       3 (A1) A      1 (B1) B    ->    2 (B1) A      4 (A1) B     
 -0.0128167928       3 (A1) A      1 (B1) B    ->    4 (A1) B      2 (B1) A     
 -0.0128167928       1 (B1) A      3 (A1) B    ->    4 (A1) A      2 (B1) B     
  0.0128167928       1 (B1) A      3 (A1) B    ->    2 (B1) B      4 (A1) A     
  0.0128167928       3 (A1) B      1 (B1) A    ->    4 (A1) A      2 (B1) B     
 -0.0128167928       3 (A1) B      1 (B1) A    ->    2 (B1) B      4 (A1) A     
 -0.0128167928       1 (B1) B      3 (A1) A    ->    2 (B1) A      4 (A1) B     
  0.0128167928       1 (B1) B      3 (A1) A    ->    4 (A1) B      2 (B1) A     
 -0.0115026730       2 (A1) A      1 (B1) B    ->    2 (B1) A      4 (A1) B     
  0.0115026730       2 (A1) A      1 (B1) B    ->    4 (A1) B      2 (B1) A     
  0.0115026730       1 (B1) A      2 (A1) B    ->    4 (A1) A      2 (B1) B     
 -0.0115026730       1 (B1) A      2 (A1) B    ->    2 (B1) B      4 (A1) A     
 -0.0115026730       2 (A1) B      1 (B1) A    ->    4 (A1) A      2 (B1) B     
  0.0115026730       2 (A1) B      1 (B1) A    ->    2 (B1) B      4 (A1) A     
  0.0115026730       1 (B1) B      2 (A1) A    ->    2 (B1) A      4 (A1) B     
 -0.0115026730       1 (B1) B      2 (A1) A    ->    4 (A1) B      2 (B1) A     
  0.0113887290       2 (A1) A      3 (A1) B    ->    2 (B1) A      2 (B1) B     
 -0.0113887290       3 (A1) A      2 (A1) B    ->    2 (B1) A      2 (B1) B     
 -0.0113887290       2 (A1) A      3 (A1) B    ->    2 (B1) B      2 (B1) A     
  0.0113887290       3 (A1) A      2 (A1) B    ->    2 (B1) B      2 (B1) A     
 -0.0113887290       3 (A1) B      2 (A1) A    ->    2 (B1) A      2 (B1) B     
  0.0113887290       2 (A1) B      3 (A1) A    ->    2 (B1) A      2 (B1) B     
 -0.0113887290       2 (A1) B      3 (A1) A    ->    2 (B1) B      2 (B1) A     
  0.0113887290       3 (A1) B      2 (A1) A    ->    2 (B1) B      2 (B1) A     
  0.0097506791       2 (A1) A      3 (A1) B    ->    4 (A1) A      4 (A1) B     
 -0.0097506791       3 (A1) A      2 (A1) B    ->    4 (A1) A      4 (A1) B     
 -0.0097506791       2 (A1) A      3 (A1) B    ->    4 (A1) B      4 (A1) A     
  0.0097506791       3 (A1) A      2 (A1) B    ->    4 (A1) B      4 (A1) A     
 -0.0097506791       3 (A1) B      2 (A1) A    ->    4 (A1) A      4 (A1) B     
  0.0097506791       2 (A1) B      3 (A1) A    ->    4 (A1) A      4 (A1) B     
 -0.0097506791       2 (A1) B      3 (A1) A    ->    4 (A1) B      4 (A1) A     
  0.0097506791       3 (A1) B      2 (A1) A    ->    4 (A1) B      4 (A1) A     
  0.0065408304       2 (A1) A      1 (B1) A    ->    4 (A1) A      2 (B1) A     
 -0.0065408304       2 (A1) A      1 (B1) A    ->    2 (B1) A      4 (A1) A     
 -0.0065408304       1 (B1) A      2 (A1) A    ->    4 (A1) A      2 (B1) A     
  0.0065408304       1 (B1) A      2 (A1) A    ->    2 (B1) A      4 (A1) A     
 -0.0065408304       2 (A1) B      1 (B1) B    ->    4 (A1) B      2 (B1) B     
  0.0065408304       2 (A1) B      1 (B1) B    ->    2 (B1) B      4 (A1) B     
  0.0065408304       1 (B1) B      2 (A1) B    ->    4 (A1) B      2 (B1) B     
 -0.0065408304       1 (B1) B      2 (A1) B    ->    2 (B1) B      4 (A1) B     
  0.0009789297       1 (A1) A      3 (A1) B    ->    4 (A1) A      4 (A1) B     
 -0.0009789297       3 (A1) A      1 (A1) B    ->    4 (A1) A      4 (A1) B     
 -0.0009789297       1 (A1) A      3 (A1) B    ->    4 (A1) B      4 (A1) A     
  0.0009789297       3 (A1) A      1 (A1) B    ->    4 (A1) B      4 (A1) A     
 -0.0009789297       3 (A1) B      1 (A1) A    ->    4 (A1) A      4 (A1) B     
  0.0009789297       1 (A1) B      3 (A1) A    ->    4 (A1) A      4 (A1) B     
 -0.0009789297       1 (A1) B      3 (A1) A    ->    4 (A1) B      4 (A1) A     
  0.0009789297       3 (A1) B      1 (A1) A    ->    4 (A1) B      4 (A1) A     
  0.0004463412       1 (A1) A      3 (A1) B    ->    2 (B1) A      2 (B1) B     
 -0.0004463412       3 (A1) A      1 (A1) B    ->    2 (B1) A      2 (B1) B     
 -0.0004463412       1 (A1) A      3 (A1) B    ->    2 (B1) B      2 (B1) A     
  0.0004463412       3 (A1) A      1 (A1) B    ->    2 (B1) B      2 (B1) A     
 -0.0004463412       3 (A1) B      1 (A1) A    ->    2 (B1) A      2 (B1) B     
  0.0004463412       1 (A1) B      3 (A1) A    ->    2 (B1) A      2 (B1) B     
 -0.0004463412       1 (A1) B      3 (A1) A    ->    2 (B1) B      2 (B1) A     
  0.0004463412       3 (A1) B      1 (A1) A    ->    2 (B1) B      2 (B1) A     
  0.0002869159       1 (A1) A      1 (B1) B    ->    2 (B1) A      4 (A1) B     
 -0.0002869159       1 (A1) A      1 (B1) B    ->    4 (A1) B      2 (B1) A     
 -0.0002869159       1 (B1) A      1 (A1) B    ->    4 (A1) A      2 (B1) B     
  0.0002869159       1 (B1) A      1 (A1) B    ->    2 (B1) B      4 (A1) A     
  0.0002869159       1 (A1) B      1 (B1) A    ->    4 (A1) A      2 (B1) B     
 -0.0002869159       1 (A1) B      1 (B1) A    ->    2 (B1) B      4 (A1) A     
 -0.0002869159       1 (B1) B      1 (A1) A    ->    2 (B1) A      4 (A1) B     
  0.0002869159       1 (B1) B      1 (A1) A    ->    4 (A1) B      2 (B1) A     
  0.0001614009       1 (A1) A      1 (B1) A    ->    4 (A1) A      2 (B1) A     
 -0.0001614009       1 (A1) A      1 (B1) A    ->    2 (B1) A      4 (A1) A     
 -0.0001614009       1 (B1) A      1 (A1) A    ->    4 (A1) A      2 (B1) A     
  0.0001614009       1 (B1) A      1 (A1) A    ->    2 (B1) A      4 (A1) A     
 -0.0001614009       1 (A1) B      1 (B1) B    ->    4 (A1) B      2 (B1) B     
  0.0001614009       1 (A1) B      1 (B1) B    ->    2 (B1) B      4 (A1) B     
  0.0001614009       1 (B1) B      1 (A1) B    ->    4 (A1) B      2 (B1) B     
 -0.0001614009       1 (B1) B      1 (A1) B    ->    2 (B1) B      4 (A1) B     
 -0.0000723063       1 (A1) A      1 (B1) B    ->    4 (A1) A      2 (B1) B     
  0.0000723063       1 (A1) A      1 (B1) B    ->    2 (B1) B      4 (A1) A     
  0.0000723063       1 (B1) A      1 (A1) B    ->    2 (B1) A      4 (A1) B     
[...]
 -0.0005275790       1 (A1) A      2 (A1) B    ->    2 (B1) B      4 (A1) A     
 -0.0005275790       2 (A1) B      1 (A1) A    ->    4 (A1) A      2 (B1) B     
  0.0005275790       1 (A1) B      2 (A1) A    ->    2 (B1) A      4 (A1) B     
 -0.0005275790       1 (A1) B      2 (A1) A    ->    4 (A1) B      2 (B1) A     
  0.0005275790       2 (A1) B      1 (A1) A    ->    2 (B1) B      4 (A1) A     
  0.0005251124       2 (A1) A      1 (A1) B    ->    4 (A1) A      2 (B1) B     
 -0.0005251124       1 (A1) A      2 (A1) B    ->    2 (B1) A      4 (A1) B     
  0.0005251124       1 (A1) A      2 (A1) B    ->    4 (A1) B      2 (B1) A     
 -0.0005251124       2 (A1) A      1 (A1) B    ->    2 (B1) B      4 (A1) A     
 -0.0005251124       1 (A1) B      2 (A1) A    ->    4 (A1) A      2 (B1) B     
  0.0005251124       2 (A1) B      1 (A1) A    ->    2 (B1) A      4 (A1) B     
 -0.0005251124       2 (A1) B      1 (A1) A    ->    4 (A1) B      2 (B1) A     
  0.0005251124       1 (A1) B      2 (A1) A    ->    2 (B1) B      4 (A1) A     
  0.0003742211       1 (A1) A      3 (A1) B    ->    4 (A1) A      2 (B1) B     
 -0.0003742211       3 (A1) A      1 (A1) B    ->    2 (B1) A      4 (A1) B     
  0.0003742211       3 (A1) A      1 (A1) B    ->    4 (A1) B      2 (B1) A     
 -0.0003742211       1 (A1) A      3 (A1) B    ->    2 (B1) B      4 (A1) A     
 -0.0003742211       3 (A1) B      1 (A1) A    ->    4 (A1) A      2 (B1) B     
  0.0003742211       1 (A1) B      3 (A1) A    ->    2 (B1) A      4 (A1) B     
 -0.0003742211       1 (A1) B      3 (A1) A    ->    4 (A1) B      2 (B1) A     
  0.0003742211       3 (A1) B      1 (A1) A    ->    2 (B1) B      4 (A1) A     
  0.0002215895       1 (A1) A      1 (B1) B    ->    2 (B1) A      2 (B1) B     
 -0.0002215895       1 (A1) A      1 (B1) B    ->    2 (B1) B      2 (B1) A     
 -0.0002215895       1 (B1) A      1 (A1) B    ->    2 (B1) A      2 (B1) B     
  0.0002215895       1 (B1) A      1 (A1) B    ->    2 (B1) B      2 (B1) A     
  0.0002215895       1 (A1) B      1 (B1) A    ->    2 (B1) A      2 (B1) B     
 -0.0002215895       1 (A1) B      1 (B1) A    ->    2 (B1) B      2 (B1) A     
 -0.0002215895       1 (B1) B      1 (A1) A    ->    2 (B1) A      2 (B1) B     
  0.0002215895       1 (B1) B      1 (A1) A    ->    2 (B1) B      2 (B1) A     
 -0.0001517448       1 (A1) A      3 (A1) A    ->    4 (A1) A      2 (B1) A     
  0.0001517448       3 (A1) A      1 (A1) A    ->    4 (A1) A      2 (B1) A     
  0.0001517448       1 (A1) A      3 (A1) A    ->    2 (B1) A      4 (A1) A     
 -0.0001517448       3 (A1) A      1 (A1) A    ->    2 (B1) A      4 (A1) A     
  0.0001517448       1 (A1) B      3 (A1) B    ->    4 (A1) B      2 (B1) B     
 -0.0001517448       3 (A1) B      1 (A1) B    ->    4 (A1) B      2 (B1) B     
 -0.0001517448       1 (A1) B      3 (A1) B    ->    2 (B1) B      4 (A1) B     
  0.0001517448       3 (A1) B      1 (A1) B    ->    2 (B1) B      4 (A1) B     
  0.0001067438       1 (A1) A      1 (A1) B    ->    4 (A1) A      2 (B1) B     
 -0.0001067438       1 (A1) A      1 (A1) B    ->    2 (B1) A      4 (A1) B     
  0.0001067438       1 (A1) A      1 (A1) B    ->    4 (A1) B      2 (B1) A     
 -0.0001067438       1 (A1) A      1 (A1) B    ->    2 (B1) B      4 (A1) A     
 -0.0001067438       1 (A1) B      1 (A1) A    ->    4 (A1) A      2 (B1) B     
  0.0001067438       1 (A1) B      1 (A1) A    ->    2 (B1) A      4 (A1) B     
 -0.0001067438       1 (A1) B      1 (A1) A    ->    4 (A1) B      2 (B1) A     
  0.0001067438       1 (A1) B      1 (A1) A    ->    2 (B1) B      4 (A1) A     
  0.0001058000       1 (A1) A      1 (B1) B    ->    4 (A1) A      4 (A1) B     
 -0.0001058000       1 (A1) A      1 (B1) B    ->    4 (A1) B      4 (A1) A     
 -0.0001058000       1 (B1) A      1 (A1) B    ->    4 (A1) A      4 (A1) B     
  0.0001058000       1 (B1) A      1 (A1) B    ->    4 (A1) B      4 (A1) A     
  0.0001058000       1 (A1) B      1 (B1) A    ->    4 (A1) A      4 (A1) B     
 -0.0001058000       1 (A1) B      1 (B1) A    ->    4 (A1) B      4 (A1) A     
 -0.0001058000       1 (B1) B      1 (A1) A    ->    4 (A1) A      4 (A1) B     
  0.0001058000       1 (B1) B      1 (A1) A    ->    4 (A1) B      4 (A1) A     
  0.0000431062       1 (A1) A      2 (A1) A    ->    4 (A1) A      2 (B1) A     
 -0.0000431062       2 (A1) A      1 (A1) A    ->    4 (A1) A      2 (B1) A     
 -0.0000431062       1 (A1) A      2 (A1) A    ->    2 (B1) A      4 (A1) A     
  0.0000431062       2 (A1) A      1 (A1) A    ->    2 (B1) A      4 (A1) A     
 -0.0000431062       1 (A1) B      2 (A1) B    ->    4 (A1) B      2 (B1) B     
  0.0000431062       2 (A1) B      1 (A1) B    ->    4 (A1) B      2 (B1) B     
  0.0000431062       1 (A1) B      2 (A1) B    ->    2 (B1) B      4 (A1) B     
 -0.0000431062       2 (A1) B      1 (A1) B    ->    2 (B1) B      4 (A1) B     
 -0.0000018019       2 (A1) A      1 (B1) B    ->    4 (A1) A      4 (A1) B     
  0.0000018019       2 (A1) A      1 (B1) B    ->    4 (A1) B      4 (A1) A     
  0.0000018019       1 (B1) A      2 (A1) B    ->    4 (A1) A      4 (A1) B     
 -0.0000018019       1 (B1) A      2 (A1) B    ->    4 (A1) B      4 (A1) A     
 -0.0000018019       2 (A1) B      1 (B1) A    ->    4 (A1) A      4 (A1) B     
  0.0000018019       2 (A1) B      1 (B1) A    ->    4 (A1) B      4 (A1) A     
  0.0000018019       1 (B1) B      2 (A1) A    ->    4 (A1) A      4 (A1) B     
 -0.0000018019       1 (B1) B      2 (A1) A    ->    4 (A1) B      4 (A1) A     

              Summary of significant orbitals:

               Number  Type             Irrep      Energy
               1       Occ  Alpha       1 (A1)    -20.2559
               2       Occ  Alpha       2 (A1)     -1.4591
               4       Occ  Alpha       3 (A1)     -0.4975
               3       Occ  Alpha       1 (B1)     -0.7806
               5       Occ  Alpha       1 (B2)     -0.4401
               1       Occ  Beta        1 (A1)    -20.2559
               2       Occ  Beta        2 (A1)     -1.4591
               4       Occ  Beta        3 (A1)     -0.4975
               3       Occ  Beta        1 (B1)     -0.7806
               5       Occ  Beta        1 (B2)     -0.4401
               6       Vir  Alpha       4 (A1)      0.8858
               7       Vir  Alpha       2 (B1)      1.1138
               6       Vir  Beta        4 (A1)      0.8858
               7       Vir  Beta        2 (B1)      1.1138


 EEs and amplitudes of EOMEE has be exported to fchk file
Running a double precision version
      EOM-CCSD/MP2 left amplitudes will be solved using Davidson.
        Amplitudes will be solved using MOM  algorithm.
     Hard-coded thresholds: 
     LinDepThresh=1.00e-15  NormThresh=1.00e-06  ReorthogonThresh=1.00e-02

      Roots     MaxVec    MaxIter   Precond   Conv      Shift    
      1         120       60        1         1.00e-05  0.00e+00  
 ------------------------------------------------------------------------------
      Iter ConvRoots NVecs ResNorm Current eigenvalues (eV)
 ------------------------------------------------------------------------------
      0    0      1     5.21e-05   26.1832   
      1    0      2     1.91e-04   26.1832   
      2    1      3     3.16e-06   26.1832*  

     Davidson procedure converged

 Excited state properties for  EOMEE-CCSD transition 1/B1
 Dipole moment (a.u.): 0.068232 (X 0.000000, Y 0.000000, Z 0.068232)
 R-squared (a.u.): 16.233441 (XX 6.934453, YY 4.394221, ZZ 4.904767)
 Gauge origin (a.u.): (0.000000, 0.000000, 0.000000)
 Angular momentum (a.u.) against gauge origin: 
 (X 0.000000i, Y 0.000000i, Z 0.000000i)
 Traces of the OPDMs: Tr(AA) 5.000000, Tr(BB) 5.000000

        Solving for EOMEE-CCSD B2 triplet states.

Running a double precision version
        EOMEE-CCSD/MP2 right amplitudes will be solved using Davidson.
        Amplitudes will be solved using standard  algorithm.
     Hard-coded thresholds: 
     LinDepThresh=1.00e-15  NormThresh=1.00e-06  ReorthogonThresh=1.00e-02

      Roots     MaxVec    MaxIter   Precond   Conv      Shift    
      1         120       60        1         1.00e-05  0.00e+00  
 ------------------------------------------------------------------------------
      Iter ConvRoots NVecs ResNorm Current eigenvalues (eV)
 ------------------------------------------------------------------------------
      0    0      1     2.90e-02   20.0720   
      1    0      2     8.33e-02   19.7235   
      2    0      3     3.39e-05   19.5510   
      3    1      4     6.22e-07   19.5510*  

     Davidson procedure converged

 EOMEE transition 1/B2
 Total energy = -73.92516389 a.u.  Excitation energy = 19.55103080 eV.
 R0^2 = 0.0000  R1^2 = 0.9874  R2^2 = 0.0126  Res^2 = 6.22e-07
 Conv-d = yes

 Amplitude    Transitions between orbitals
  0.7026347149       1 (B2) A                  ->    4 (A1) A                   
 -0.7026347149       1 (B2) B                  ->    4 (A1) B                   
  0.0642685494       1 (B1) A      1 (B2) B    ->    2 (B1) A      4 (A1) B     
 -0.0642685494       1 (B1) A      1 (B2) B    ->    4 (A1) B      2 (B1) A     
 -0.0642685494       1 (B2) A      1 (B1) B    ->    4 (A1) A      2 (B1) B     
  0.0642685494       1 (B2) A      1 (B1) B    ->    2 (B1) B      4 (A1) A     
  0.0642685494       1 (B1) B      1 (B2) A    ->    4 (A1) A      2 (B1) B     
 -0.0642685494       1 (B1) B      1 (B2) A    ->    2 (B1) B      4 (A1) A     
 -0.0642685494       1 (B2) B      1 (B1) A    ->    2 (B1) A      4 (A1) B     
  0.0642685494       1 (B2) B      1 (B1) A    ->    4 (A1) B      2 (B1) A     
  0.0272522552       3 (A1) A      1 (B2) B    ->    2 (B1) A      2 (B1) B     
 -0.0272522552       3 (A1) A      1 (B2) B    ->    2 (B1) B      2 (B1) A     
 -0.0272522552       1 (B2) A      3 (A1) B    ->    2 (B1) A      2 (B1) B     
  0.0272522552       1 (B2) A      3 (A1) B    ->    2 (B1) B      2 (B1) A     
  0.0272522552       3 (A1) B      1 (B2) A    ->    2 (B1) A      2 (B1) B     
 -0.0272522552       3 (A1) B      1 (B2) A    ->    2 (B1) B      2 (B1) A     
 -0.0272522552       1 (B2) B      3 (A1) A    ->    2 (B1) A      2 (B1) B     
  0.0272522552       1 (B2) B      3 (A1) A    ->    2 (B1) B      2 (B1) A     
  0.0238535792       1 (B1) A      1 (B2) A    ->    4 (A1) A      2 (B1) A     
 -0.0238535792       1 (B1) A      1 (B2) A    ->    2 (B1) A      4 (A1) A     
 -0.0238535792       1 (B2) A      1 (B1) A    ->    4 (A1) A      2 (B1) A     
  0.0238535792       1 (B2) A      1 (B1) A    ->    2 (B1) A      4 (A1) A     
 -0.0238535792       1 (B1) B      1 (B2) B    ->    4 (A1) B      2 (B1) B     
  0.0238535792       1 (B1) B      1 (B2) B    ->    2 (B1) B      4 (A1) B     
  0.0238535792       1 (B2) B      1 (B1) B    ->    4 (A1) B      2 (B1) B     
 -0.0238535792       1 (B2) B      1 (B1) B    ->    2 (B1) B      4 (A1) B     
  0.0215955255       3 (A1) A      1 (B2) B    ->    4 (A1) A      4 (A1) B     
 -0.0215955255       3 (A1) A      1 (B2) B    ->    4 (A1) B      4 (A1) A     
 -0.0215955255       1 (B2) A      3 (A1) B    ->    4 (A1) A      4 (A1) B     
  0.0215955255       1 (B2) A      3 (A1) B    ->    4 (A1) B      4 (A1) A     
  0.0215955255       3 (A1) B      1 (B2) A    ->    4 (A1) A      4 (A1) B     
 -0.0215955255       3 (A1) B      1 (B2) A    ->    4 (A1) B      4 (A1) A     
 -0.0215955255       1 (B2) B      3 (A1) A    ->    4 (A1) A      4 (A1) B     
  0.0215955255       1 (B2) B      3 (A1) A    ->    4 (A1) B      4 (A1) A     
  0.0152865655       1 (B1) A      1 (B2) B    ->    4 (A1) A      2 (B1) B     
 -0.0152865655       1 (B1) A      1 (B2) B    ->    2 (B1) B      4 (A1) A     
 -0.0152865655       1 (B2) A      1 (B1) B    ->    2 (B1) A      4 (A1) B     
  0.0152865655       1 (B2) A      1 (B1) B    ->    4 (A1) B      2 (B1) A     
  0.0152865655       1 (B1) B      1 (B2) A    ->    2 (B1) A      4 (A1) B     
 -0.0152865655       1 (B1) B      1 (B2) A    ->    4 (A1) B      2 (B1) A     
 -0.0152865655       1 (B2) B      1 (B1) A    ->    4 (A1) A      2 (B1) B     
  0.0152865655       1 (B2) B      1 (B1) A    ->    2 (B1) B      4 (A1) A     
 -0.0117140459       2 (A1) A      1 (B2) B    ->    2 (B1) A      2 (B1) B     
  0.0117140459       2 (A1) A      1 (B2) B    ->    2 (B1) B      2 (B1) A     
  0.0117140459       1 (B2) A      2 (A1) B    ->    2 (B1) A      2 (B1) B     
 -0.0117140459       1 (B2) A      2 (A1) B    ->    2 (B1) B      2 (B1) A     
 -0.0117140459       2 (A1) B      1 (B2) A    ->    2 (B1) A      2 (B1) B     
  0.0117140459       2 (A1) B      1 (B2) A    ->    2 (B1) B      2 (B1) A     
  0.0117140459       1 (B2) B      2 (A1) A    ->    2 (B1) A      2 (B1) B     
 -0.0117140459       1 (B2) B      2 (A1) A    ->    2 (B1) B      2 (B1) A     
 -0.0048966437       2 (A1) A      1 (B2) B    ->    4 (A1) A      4 (A1) B     
  0.0048966437       2 (A1) A      1 (B2) B    ->    4 (A1) B      4 (A1) A     
  0.0048966437       1 (B2) A      2 (A1) B    ->    4 (A1) A      4 (A1) B     
 -0.0048966437       1 (B2) A      2 (A1) B    ->    4 (A1) B      4 (A1) A     
 -0.0048966437       2 (A1) B      1 (B2) A    ->    4 (A1) A      4 (A1) B     
  0.0048966437       2 (A1) B      1 (B2) A    ->    4 (A1) B      4 (A1) A     
  0.0048966437       1 (B2) B      2 (A1) A    ->    4 (A1) A      4 (A1) B     
 -0.0048966437       1 (B2) B      2 (A1) A    ->    4 (A1) B      4 (A1) A     
 -0.0009511330       1 (A1) A      1 (B2) B    ->    4 (A1) A      4 (A1) B     
  0.0009511330       1 (A1) A      1 (B2) B    ->    4 (A1) B      4 (A1) A     
  0.0009511330       1 (B2) A      1 (A1) B    ->    4 (A1) A      4 (A1) B     
 -0.0009511330       1 (B2) A      1 (A1) B    ->    4 (A1) B      4 (A1) A     
 -0.0009511330       1 (A1) B      1 (B2) A    ->    4 (A1) A      4 (A1) B     
  0.0009511330       1 (A1) B      1 (B2) A    ->    4 (A1) B      4 (A1) A     
  0.0009511330       1 (B2) B      1 (A1) A    ->    4 (A1) A      4 (A1) B     
 -0.0009511330       1 (B2) B      1 (A1) A    ->    4 (A1) B      4 (A1) A     
 -0.0004311719       1 (A1) A      1 (B2) B    ->    2 (B1) A      2 (B1) B     
  0.0004311719       1 (A1) A      1 (B2) B    ->    2 (B1) B      2 (B1) A     
  0.0004311719       1 (B2) A      1 (A1) B    ->    2 (B1) A      2 (B1) B     
 -0.0004311719       1 (B2) A      1 (A1) B    ->    2 (B1) B      2 (B1) A     
 -0.0004311719       1 (A1) B      1 (B2) A    ->    2 (B1) A      2 (B1) B     
  0.0004311719       1 (A1) B      1 (B2) A    ->    2 (B1) B      2 (B1) A     
  0.0004311719       1 (B2) B      1 (A1) A    ->    2 (B1) A      2 (B1) B     
 -0.0004311719       1 (B2) B      1 (A1) A    ->    2 (B1) B      2 (B1) A     

              Summary of significant orbitals:

               Number  Type             Irrep      Energy
               1       Occ  Alpha       1 (A1)    -20.2559
               2       Occ  Alpha       2 (A1)     -1.4591
               4       Occ  Alpha       3 (A1)     -0.4975
               3       Occ  Alpha       1 (B1)     -0.7806
               5       Occ  Alpha       1 (B2)     -0.4401
               1       Occ  Beta        1 (A1)    -20.2559
               2       Occ  Beta        2 (A1)     -1.4591
               4       Occ  Beta        3 (A1)     -0.4975
               3       Occ  Beta        1 (B1)     -0.7806
               5       Occ  Beta        1 (B2)     -0.4401
               6       Vir  Alpha       4 (A1)      0.8858
               7       Vir  Alpha       2 (B1)      1.1138
               6       Vir  Beta        4 (A1)      0.8858
               7       Vir  Beta        2 (B1)      1.1138


 EEs and amplitudes of EOMEE has be exported to fchk file
Running a double precision version
      EOM-CCSD/MP2 left amplitudes will be solved using Davidson.
        Amplitudes will be solved using MOM  algorithm.
     Hard-coded thresholds: 
     LinDepThresh=1.00e-15  NormThresh=1.00e-06  ReorthogonThresh=1.00e-02

      Roots     MaxVec    MaxIter   Precond   Conv      Shift    
      1         120       60        1         1.00e-05  0.00e+00  
 ------------------------------------------------------------------------------
      Iter ConvRoots NVecs ResNorm Current eigenvalues (eV)
 ------------------------------------------------------------------------------
      0    0      1     5.43e-05   19.5510   
      1    0      2     7.58e-05   19.5510   
      2    1      3     4.90e-07   19.5510*  

     Davidson procedure converged

 Excited state properties for  EOMEE-CCSD transition 1/B2
 Dipole moment (a.u.): 0.025048 (X 0.000000, Y 0.000000, Z -0.025048)
 R-squared (a.u.): 17.362861 (XX 7.165844, YY 4.172269, ZZ 6.024749)
 Gauge origin (a.u.): (0.000000, 0.000000, 0.000000)
 Angular momentum (a.u.) against gauge origin: 
 (X 0.000000i, Y 0.000000i, Z 0.000000i)
 Traces of the OPDMs: Tr(AA) 5.000000, Tr(BB) 5.000000

 EOMEE-CCSD calculation:   CPU 8.04 s  wall 2.69 s

 Total ccman2 time:   CPU 11.62 s  wall 3.62 s


 --------------------------------------------------------------
             Orbital Energies (a.u.) and Symmetries
 --------------------------------------------------------------

 Alpha MOs, Restricted
 -- Occupied --                  
-20.256  -1.459  -0.781  -0.498  -0.440
  1 A1    2 A1    1 B1    3 A1    1 B2                                         
 -- Virtual --                   
  0.886   1.114
  4 A1    2 B1                                                                 

 Beta MOs, Restricted
 -- Occupied --                  
-20.256  -1.459  -0.781  -0.498  -0.440
  1 A1    2 A1    1 B1    3 A1    1 B2                                         
 -- Virtual --                   
  0.886   1.114
  4 A1    2 B1                                                                 
 --------------------------------------------------------------

          Ground-State Mulliken Net Atomic Charges

     Atom                 Charge (a.u.)
  ----------------------------------------
      1 O                    -0.702416
      2 H                     0.351208
      3 H                     0.351208
  ----------------------------------------
  Sum of atomic charges =     0.000000

 -----------------------------------------------------------------
                    Cartesian Multipole Moments
 -----------------------------------------------------------------
    Charge (ESU x 10^10)
                 0.0000
    Dipole Moment (Debye)
         X       0.0000      Y       0.0000      Z      -1.9551
       Tot       1.9551
    Quadrupole Moments (Debye-Ang)
        XX      -4.5486     XY       0.0000     YY      -5.8351
        XZ       0.0000     YZ       0.0000     ZZ      -5.3255
    Octopole Moments (Debye-Ang^2)
       XXX       0.0000    XXY      -0.0000    XYY       0.0000
       YYY       0.0000    XXZ      -0.3878    XYZ      -0.0000
       YYZ      -0.1317    XZZ      -0.0000    YZZ       0.0000
       ZZZ      -0.5287
    Hexadecapole Moments (Debye-Ang^3)
      XXXX      -4.4913   XXXY       0.0000   XXYY      -1.2935
      XYYY       0.0000   YYYY      -2.9489   XXXZ       0.0000
      XXYZ       0.0000   XYYZ       0.0000   YYYZ       0.0000
      XXZZ      -1.2715   XYZZ       0.0000   YYZZ      -1.1135
      XZZZ       0.0000   YZZZ       0.0000   ZZZZ      -3.6478
 -----------------------------------------------------------------
 Total job time:  4.87s(wall), 13.43s(cpu) 
 Sun Sep  4 11:42:44 2022

        *************************************************************
        *                                                           *
        *  Thank you very much for using Q-Chem.  Have a nice day.  *
        *                                                           *
        *************************************************************


