                  Welcome to Q-Chem
     A Quantum Leap Into The Future Of Chemistry


 Q-Chem 5.4 (devel), Q-Chem, Inc., Pleasanton, CA (2021)

 E. Epifanovsky,  A. T. B. Gilbert,  Xintian Feng,  Joonho Lee,  Yuezhi Mao,  
 N. Mardirossian,  P. Pokhilko,  A. White,  M. Wormit,  M. P. Coons,  
 A. L. Dempwolff,  Zhengting Gan,  D. Hait,  P. R. Horn,  L. D. Jacobson,  
 I. Kaliman,  J. Kussmann,  A. W. Lange,  Ka Un Lao,  D. S. Levine,  Jie Liu,  
 S. C. McKenzie,  A. F. Morrison,  K. Nanda,  F. Plasser,  D. R. Rehn,  
 M. L. Vidal,  Zhi-Qiang You,  Ying Zhu,  B. Alam,  B. Albrecht,  
 A. Aldossary,  E. Alguire,  J. H. Andersen,  D. Barton,  K. Begam,  A. Behn,  
 Y. A. Bernard,  E. J. Berquist,  H. Burton,  A. Carreras,  K. Carter-Fenk,  
 R. Chakraborty,  A. D. Chien,  K. D. Closser,  V. Cofer-Shabica,  
 S. Dasgupta,  Jia Deng,  M. de Wergifosse,  M. Diedenhofen,  Hainam Do,  
 S. Ehlert,  Po-Tung Fang,  S. Fatehi,  Qingguo Feng,  T. Friedhoff,  
 J. Gayvert,  Qinghui Ge,  G. Gidofalvi,  M. Goldey,  J. Gomes,  
 C. Gonzalez-Espinoza,  S. Gulania,  A. Gunina,  M. W. D. Hanson-Heine,  
 P. H. P. Harbach,  A. W. Hauser,  M. F. Herbst,  M. Hernandez Vera,  
 M. Hodecker,  Z. C. Holden,  S. Houck,  Xunkun Huang,  Kerwin Hui,  
 B. C. Huynh,  M. Ivanov,  Hyunjun Ji,  Hanjie Jiang,  B. Kaduk,  S. Kaehler,  
 K. Khistyaev,  Jaehoon Kim,  P. Klunzinger,  Z. Koczor-Benda,  
 Joong Hoon Koh,  D. Kosenkov,  L. Koulias,  T. Kowalczyk,  C. M. Krauter,  
 K. Kue,  A. Kunitsa,  T. Kus,  A. Landau,  K. V. Lawler,  D. Lefrancois,  
 S. Lehtola,  Rain Li,  Yi-Pei Li,  Jiashu Liang,  M. Liebenthal,  
 Hung-Hsuan Lin,  You-Sheng Lin,  Fenglai Liu,  Kuan-Yu Liu,  
 M. Loipersberger,  A. Luenser,  A. Manjanath,  P. Manohar,  E. Mansoor,  
 S. F. Manzer,  Shan-Ping Mao,  A. V. Marenich,  T. Markovich,  S. Mason,  
 S. A. Maurer,  P. F. McLaughlin,  M. F. S. J. Menger,  J.-M. Mewes,  
 S. A. Mewes,  P. Morgante,  J. W. Mullinax,  K. J. Oosterbaan,  G. Paran,  
 Alexander C. Paul,  Suranjan K. Paul,  F. Pavosevic,  Zheng Pei,  S. Prager,  
 E. I. Proynov,  E. Ramos,  B. Rana,  A. E. Rask,  A. Rettig,  R. M. Richard,  
 F. Rob,  E. Rossomme,  T. Scheele,  M. Scheurer,  M. Schneider,  
 N. Sergueev,  S. M. Sharada,  W. Skomorowski,  D. W. Small,  C. J. Stein,  
 Yu-Chuan Su,  E. J. Sundstrom,  Zhen Tao,  J. Thirman,  T. Tsuchimochi,  
 N. M. Tubman,  S. P. Veccham,  O. Vydrov,  J. Wenzel,  J. Witte,  A. Yamada,  
 Kun Yao,  S. Yeganeh,  S. R. Yost,  A. Zech,  Igor Ying Zhang,  Xing Zhang,  
 Yu Zhang,  D. Zuev,  A. Aspuru-Guzik,  A. T. Bell,  N. A. Besley,  
 K. B. Bravaya,  B. R. Brooks,  D. Casanova,  Jeng-Da Chai,  S. Coriani,  
 C. J. Cramer,  A. E. DePrince, III,  R. A. DiStasio Jr.,  A. Dreuw,  
 B. D. Dunietz,  T. R. Furlani,  W. A. Goddard III,  S. Grimme,  
 S. Hammes-Schiffer,  T. Head-Gordon,  W. J. Hehre,  Chao-Ping Hsu,  
 T.-C. Jagau,  Yousung Jung,  A. Klamt,  Jing Kong,  D. S. Lambrecht,  
 WanZhen Liang,  N. J. Mayhall,  C. W. McCurdy,  J. B. Neaton,  
 C. Ochsenfeld,  J. A. Parkhill,  R. Peverati,  V. A. Rassolov,  Yihan Shao,  
 L. V. Slipchenko,  T. Stauch,  R. P. Steele,  J. E. Subotnik,  
 A. J. W. Thom,  A. Tkatchenko,  D. G. Truhlar,  T. Van Voorhis,  
 T. A. Wesolowski,  K. B. Whaley,  H. L. Woodcock III,  P. M. Zimmerman,  
 S. Faraji,  P. M. W. Gill,  M. Head-Gordon,  J. M. Herbert,  A. I. Krylov

 Additional authors for Version 5.4.1: 
 S. Kotaru,  Shaozhi Li,  Xiangyuan Li,  F. Matz,  A. Molle,  Haisheng Ren,  
 Yingli Su,  Hung-Yi Tsai,  C. Utku,  Fang Wang

 Contributors to earlier versions of Q-Chem not listed above: 
 R. D. Adamson,  B. Austin,  R. Baer,  J. Baker,  G. J. O. Beran,  
 K. Brandhorst,  S. T. Brown,  E. F. C. Byrd,  A. K. Chakraborty,  
 G. K. L. Chan,  Chun-Min Chang,  Yunqing Chen,  C.-L. Cheng,  
 Siu Hung Chien,  D. M. Chipman,  D. L. Crittenden,  H. Dachsel,  
 R. J. Doerksen,  A. D. Dutoi,  R. G. Edgar,  J. Fosso-Tande,  
 L. Fusti-Molnar,  D. Ghosh,  A. Ghysels,  A. Golubeva-Zadorozhnaya,  
 J. Gonthier,  M. S. Gordon,  S. R. Gwaltney,  G. Hawkins,  J. E. Herr,  
 A. Heyden,  S. Hirata,  E. G. Hohenstein,  G. Kedziora,  F. J. Keil,  
 C. Kelley,  Jihan Kim,  R. A. King,  R. Z. Khaliullin,  P. P. Korambath,  
 W. Kurlancheek,  A. Laurent,  A. M. Lee,  M. S. Lee,  S. V. Levchenko,  
 Ching Yeh Lin,  D. Liotard,  E. Livshits,  R. C. Lochan,  I. Lotan,  
 L. A. Martinez-Martinez,  P. E. Maslen,  N. Nair,  D. P. O'Neill,  
 D. Neuhauser,  E. Neuscamman,  C. M. Oana,  R. Olivares-Amaya,  R. Olson,  
 T. M. Perrine,  B. Peters,  P. A. Pieniazek,  A. Prociuk,  Y. M. Rhee,  
 J. Ritchie,  M. A. Rohrdanz,  E. Rosta,  N. J. Russ,  H. F. Schaefer III,  
 M. W. Schmidt,  N. E. Schultz,  S. Sharma,  N. Shenvi,  C. D. Sherrill,  
 A. C. Simmonett,  A. Sodt,  T. Stein,  D. Stuck,  K. S. Thanthiriwatte,  
 V. Vanovschi,  L. Vogt,  Tao Wang,  A. Warshel,  M. A. Watson,  
 C. F. Williams,  Q. Wu,  X. Xu,  Jun Yang,  W. Zhang,  Yan Zhao

 Please cite Q-Chem as follows:
 Y. Shao et al., Mol. Phys. 113, 184-215 (2015)
 DOI: 10.1080/00268976.2014.952696

 Q-Chem 5.4.1 for Intel X86 EM64T Linux

 Parts of Q-Chem use Armadillo 9.900.5 (Nocturnal Misbehaviour).
 http://arma.sourceforge.net/

 Q-Chem begins on Thu Aug 11 11:29:07 2022  

orc34
 Host: 0

     Scratch files written to /scratch/yongbin/qchem49007//
 Processing $rem in /home/users/yongbin/software/yongbin_quantum/config/preferences:
 Processing $rem in /home/users/yongbin/.qchemrc:

 Checking the input file for inconsistencies... 	...done.

--------------------------------------------------------------
User input:
--------------------------------------------------------------
$comment
Hydrogen molecule
$end

$molecule
0 1
  Li        0.0000000000    0.0000000000    0.0000000000
  H         0.0000000000    0.0000000000    1.8000000000
$end

$rem
   n_frozen_core = 0
   print_qis = true
   BASIS                = sto-3g
   SYMMETRY             = false
   CC_SYMMETRY          = false
   METHOD               = eom-ccsd
   EE_SINGLETS          = [3]  ! Compute two EOM-EE singlet excited states
   EE_TRIPLETS          = [3]  ! Compute two EOM-EE triplet excited states
   CC_REF_PROP          = true ! Compute ground state properties
   CC_EOM_PROP          = true ! Compute excited state properties
   CC_OSFNO             = true
   GUI                  = 2
$end                  
--------------------------------------------------------------
 ----------------------------------------------------------------
             Standard Nuclear Orientation (Angstroms)
    I     Atom           X                Y                Z
 ----------------------------------------------------------------
    1      Li      0.0000000000     0.0000000000    -0.4500000000
    2      H       0.0000000000     0.0000000000     1.3500000000
 ----------------------------------------------------------------
 Molecular Point Group                 C*v   NOp =***
 Largest Abelian Subgroup              C2v   NOp =  1
 Nuclear Repulsion Energy =           0.88196202 hartrees
 There are        2 alpha and        2 beta electrons
 Requested basis set is STO-3G
 There are 3 shells and 6 basis functions
 Total memory of 2000 MB is distributed as follows: 
   MEM_STATIC is set to 192 MB
   QALLOC/CCMAN JOB total memory use is  1808 MB
 Warning: actual memory use might exceed 2000 MB

 Total QAlloc Memory Limit   2000 MB
 Mega-Array Size       188 MB
 MEM_STATIC part       192 MB

                       Distance Matrix (Angstroms)
             Li(  1)
   H (  2)  1.800000

 A cutoff of  1.0D-14 yielded      6 shell pairs
 There are        27 function pairs
 Smallest overlap matrix eigenvalue = 4.06E-01

 Scale SEOQF with 1.000000e+00/1.000000e+00/1.000000e+00

 Standard Electronic Orientation quadrupole field applied
 Nucleus-field energy     =    -0.0000000026 hartrees
 Guess from superposition of atomic densities
 Warning:  Energy on first SCF cycle will be non-variational
 SAD guess density has 4.000000 electrons

 -----------------------------------------------------------------------
  General SCF calculation program by
  Eric Jon Sundstrom, Paul Horn, Yuezhi Mao, Dmitri Zuev, Alec White,
  David Stuck, Shaama M.S., Shane Yost, Joonho Lee, David Small,
  Daniel Levine, Susi Lehtola, Hugh Burton, Evgeny Epifanovsky,
  Bang C. Huynh
 -----------------------------------------------------------------------
 Hartree-Fock
 using 16 threads for integral computing
 -------------------------------------------------------
 OpenMP Integral computing Module                
 Release: version 1.0, May 2013, Q-Chem Inc. Pittsburgh 
 -------------------------------------------------------
 A restricted SCF calculation will be
 performed using DIIS
 SCF converges when DIIS error is below 1.0e-08
 ---------------------------------------
  Cycle       Energy         DIIS error
 ---------------------------------------
    1      -7.5555197782      4.39e-02  
    2      -7.8403729533      2.48e-02  
    3      -7.8488779143      5.60e-03  
    4      -7.8498308884      1.88e-03  
    5      -7.8500178778      1.45e-04  
    6      -7.8500186927      1.05e-05  
    7      -7.8500186973      3.98e-07  
    8      -7.8500186973      8.50e-08  
    9      -7.8500186973      1.15e-09  Convergence criterion met
 ---------------------------------------
 SCF time:   CPU 1.13s  wall 1.00s 
 SCF   energy in the final basis set =       -7.8500186973
 Total energy in the final basis set =       -7.8500186973


 ------------------------------------------------------------------------------

   CCMAN2: suite of methods based on coupled cluster
           and equation of motion theories.

   Components:
   * libvmm-1.3-trunk
     by Evgeny Epifanovsky, Ilya Kaliman.
   * libtensor-2.5-trunk
     by Evgeny Epifanovsky, Michael Wormit, Dmitry Zuev, Sam Manzer, 
        Ilya Kaliman.
   * libcc-2.5-trunk
     by Evgeny Epifanovsky, Arik Landau, Tomasz Kus, Kirill Khistyaev, 
        Dmitry Zuev, Prashant Manohar, Xintian Feng, Anna Krylov, 
        Matthew Goldey, Alec White, Thomas Jagau, Kaushik Nanda, 
        Anastasia Gunina, Alexander Kunitsa, Joonho Lee.

   CCMAN original authors:
   Anna I. Krylov, C. David Sherrill, Steven R. Gwaltney,
   Edward F. C. Byrd (2000)
   Sergey V. Levchenko, Lyudmila V. Slipchenko, Tao Wang,
   Ana-Maria C. Cristian (2003)
   Piotr A. Pieniazek, C. Melania Oana, Evgeny Epifanovsky (2007)
   Prashant Manohar (2009)

 ------------------------------------------------------------------------------


 Allocating and initializing 1808MB of RAM...
 Calculation will run on 16 cores.


 Occupation and symmetry of molecular orbitals

 Point group: C1 (1 irreducible representation).

                           A     All 
 -------------------------------------
 All molecular orbitals:
  - Alpha                  6     6   
  - Beta                   6     6   
 -------------------------------------
 Alpha orbitals:
  - Frozen occupied        0     0   
  - Active occupied        2     2   
  - Active virtual         4     4   
  - Frozen virtual         0     0   
 -------------------------------------
 Beta orbitals:
  - Frozen occupied        0     0   
  - Active occupied        2     2   
  - Active virtual         4     4   
  - Frozen virtual         0     0   
 -------------------------------------

 Import integrals:   CPU 0.00 s  wall 0.00 s

 Import integrals:   CPU 0.10 s  wall 0.04 s

 Run QIS:   CPU 0.01 s  wall 0.01 s

 MP2 amplitudes:   CPU 0.00 s  wall 0.00 s

Running a double precision version
           CCSD T amplitudes will be solved using DIIS.

           Start     Size      MaxIter   EConv     TConv     
           3         7         100       1.00e-06  1.00e-04  
 ------------------------------------------------------------------------------
           Energy (a.u.)   Ediff      Tdiff       Comment
 ------------------------------------------------------------------------------
            -7.86485973                           
     1      -7.87032322   5.46e-03   1.29e-01     
     2      -7.87254978   2.23e-03   4.38e-02     
     3      -7.87349757   9.48e-04   1.73e-02     
     4      -7.87432669   8.29e-04   1.27e-02     Switched to DIIS steps.
     5      -7.87448391   1.57e-04   7.13e-03     
     6      -7.87450914   2.52e-05   9.77e-04     
     7      -7.87451138   2.24e-06   2.05e-04     
     8      -7.87451044   9.38e-07   1.95e-05     
 ------------------------------------------------------------------------------
            -7.87451044                           CCSD T converged.

End of double precision
 SCF energy                 = -7.85001870
 MP2 energy                 = -7.86485973
 CCSD correlation energy    = -0.02449174
 CCSD total energy          = -7.87451044

 CCSD  T1^2 = 0.0046  T2^2 = 0.0324  Leading amplitudes:

 Amplitude    Orbitals with energies
 -0.0474571276       2 (A) A                   ->    3 (A) A                    
                    -0.2678                          0.0760                     
 -0.0474571276       2 (A) B                   ->    3 (A) B                    
                    -0.2678                          0.0760                     
 -0.0051756472       2 (A) A                   ->    6 (A) A                    
                    -0.2678                          0.4897                     
 -0.0051756472       2 (A) B                   ->    6 (A) B                    
                    -0.2678                          0.4897                     

 Amplitude    Orbitals with energies
 -0.1334333870       2 (A) A       2 (A) B     ->    6 (A) A       6 (A) B      
                    -0.2678       -0.2678            0.4897        0.4897       
  0.1334333870       2 (A) A       2 (A) B     ->    6 (A) B       6 (A) A      
                    -0.2678       -0.2678            0.4897        0.4897       
  0.1334333870       2 (A) B       2 (A) A     ->    6 (A) A       6 (A) B      
                    -0.2678       -0.2678            0.4897        0.4897       
 -0.1334333870       2 (A) B       2 (A) A     ->    6 (A) B       6 (A) A      
                    -0.2678       -0.2678            0.4897        0.4897       

 Computing CCSD intermediates for later calculations in double precision
 Finished.

Running a double precision version
           CCSD Lambda amplitudes will be solved using DIIS.
           Start     Size      MaxIter   EConv     LConv     
           3         7         100       1.00e-06  1.00e-04  
 ------------------------------------------------------------------------------
            Enorm      Ldiff       Comment
 ------------------------------------------------------------------------------
     1     9.83e-03   7.99e-03     
     2     3.12e-03   2.86e-03     
     3     1.51e-03   1.36e-03     
     4     6.47e-04   1.09e-03     Switched to DIIS steps.
     5     3.38e-04   4.53e-04     
     6     5.64e-05   3.38e-04     
     7     2.45e-06   2.68e-05     
     8     2.28e-07   1.37e-06     
 ------------------------------------------------------------------------------
                                   CCSD Lambda converged.

 Computing density matrices in double precision...
 Computing density matrices... Done.
 Reference state properties
 Dipole moment (a.u.): 1.800526 (X 0.000000, Y 0.000000, Z -1.800526)
 R-squared (a.u.): 20.334905 (XX 4.180860, YY 4.180860, ZZ 11.973184)
 Gauge origin (a.u.): (0.000000, 0.000000, 0.000000)
 Angular momentum (a.u.) against gauge origin: 
 (X 0.000000i, Y 0.000000i, Z 0.000000i)
 Traces of the OPDMs: Tr(AA) 2.000000, Tr(BB) 2.000000
 Density matrix was written to a file for further analysis.

 CCSD calculation:   CPU 0.61 s  wall 0.47 s

        Solving for EOMEE-CCSD A singlet states.

Running a double precision version
        EOMEE-CCSD/MP2 right amplitudes will be solved using Davidson.
        Amplitudes will be solved using standard  algorithm.
     Hard-coded thresholds: 
     LinDepThresh=1.00e-15  NormThresh=1.00e-06  ReorthogonThresh=1.00e-02

      Roots     MaxVec    MaxIter   Precond   Conv      Shift    
      3         120       60        1         1.00e-05  0.00e+00  
 ------------------------------------------------------------------------------
      Iter ConvRoots NVecs ResNorm Current eigenvalues (eV)
 ------------------------------------------------------------------------------
      0    0      3     3.51e-02   5.0534   6.6090   6.6090   
      1    0      6     2.77e-02   3.6415   4.8708   4.8708   
      2    0      9     9.24e-04   3.3186   4.6586   4.6586   
      3    2      12    8.39e-05   3.2936   4.6582*  4.6582*  
      4    3      13    6.28e-06   3.2908*  4.6582*  4.6582*  

     Davidson procedure converged

 EOMEE transition 1/A
 Total energy = -7.75357428 a.u.  Excitation energy = 3.29084016 eV.
 R0^2 = 0.0078  R1^2 = 0.8588  R2^2 = 0.1412  Res^2 = 5.05e-06
 Conv-d = yes

 Amplitude    Transitions between orbitals
  0.6537854931       2 (A) A                   ->    3 (A) A                    
  0.6537854931       2 (A) B                   ->    3 (A) B                    
  0.0442369756       2 (A) A                   ->    6 (A) A                    
  0.0442369756       2 (A) B                   ->    6 (A) B                    
  0.0036247199       1 (A) A                   ->    3 (A) A                    
  0.0036247199       1 (A) B                   ->    3 (A) B                    
  0.0020846306       1 (A) A                   ->    6 (A) A                    
  0.0020846306       1 (A) B                   ->    6 (A) B                    
  0.2760584658       2 (A) A       2 (A) B     ->    3 (A) A       3 (A) B      
 -0.2760584658       2 (A) A       2 (A) B     ->    3 (A) B       3 (A) A      
 -0.2760584658       2 (A) B       2 (A) A     ->    3 (A) A       3 (A) B      
  0.2760584658       2 (A) B       2 (A) A     ->    3 (A) B       3 (A) A      
 -0.1747998866       2 (A) A       2 (A) B     ->    3 (A) A       6 (A) B      
 -0.1747998866       2 (A) A       2 (A) B     ->    6 (A) A       3 (A) B      
  0.1747998866       2 (A) A       2 (A) B     ->    6 (A) B       3 (A) A      
  0.1747998866       2 (A) A       2 (A) B     ->    3 (A) B       6 (A) A      
  0.1747998866       2 (A) B       2 (A) A     ->    3 (A) A       6 (A) B      
  0.1747998866       2 (A) B       2 (A) A     ->    6 (A) A       3 (A) B      
 -0.1747998866       2 (A) B       2 (A) A     ->    3 (A) B       6 (A) A      
 -0.1747998866       2 (A) B       2 (A) A     ->    6 (A) B       3 (A) A      
 -0.0546673148       2 (A) A       2 (A) B     ->    6 (A) A       6 (A) B      
  0.0546673148       2 (A) A       2 (A) B     ->    6 (A) B       6 (A) A      
  0.0546673148       2 (A) B       2 (A) A     ->    6 (A) A       6 (A) B      
 -0.0546673148       2 (A) B       2 (A) A     ->    6 (A) B       6 (A) A      
  0.0187851116       2 (A) A       2 (A) B     ->    5 (A) A       5 (A) B      
 -0.0187851116       2 (A) A       2 (A) B     ->    5 (A) B       5 (A) A      
 -0.0187851116       2 (A) B       2 (A) A     ->    5 (A) A       5 (A) B      
  0.0187851116       2 (A) B       2 (A) A     ->    5 (A) B       5 (A) A      
  0.0187851115       2 (A) A       2 (A) B     ->    4 (A) A       4 (A) B      
 -0.0187851115       2 (A) A       2 (A) B     ->    4 (A) B       4 (A) A      
 -0.0187851115       2 (A) B       2 (A) A     ->    4 (A) A       4 (A) B      
  0.0187851115       2 (A) B       2 (A) A     ->    4 (A) B       4 (A) A      
 -0.0054480165       1 (A) A       2 (A) B     ->    6 (A) A       3 (A) B      
 -0.0054480165       2 (A) A       1 (A) B     ->    3 (A) A       6 (A) B      
  0.0054480165       1 (A) A       2 (A) B     ->    3 (A) B       6 (A) A      
  0.0054480165       2 (A) A       1 (A) B     ->    6 (A) B       3 (A) A      
  0.0054480165       2 (A) B       1 (A) A     ->    6 (A) A       3 (A) B      
  0.0054480165       1 (A) B       2 (A) A     ->    3 (A) A       6 (A) B      
 -0.0054480165       1 (A) B       2 (A) A     ->    6 (A) B       3 (A) A      
 -0.0054480165       2 (A) B       1 (A) A     ->    3 (A) B       6 (A) A      
  0.0042193473       1 (A) A       2 (A) A     ->    3 (A) A       6 (A) A      
 -0.0042193473       1 (A) A       2 (A) A     ->    6 (A) A       3 (A) A      
 -0.0042193473       2 (A) A       1 (A) A     ->    3 (A) A       6 (A) A      
  0.0042193473       2 (A) A       1 (A) A     ->    6 (A) A       3 (A) A      
  0.0042193473       1 (A) B       2 (A) B     ->    3 (A) B       6 (A) B      
 -0.0042193473       1 (A) B       2 (A) B     ->    6 (A) B       3 (A) B      
 -0.0042193473       2 (A) B       1 (A) B     ->    3 (A) B       6 (A) B      
  0.0042193473       2 (A) B       1 (A) B     ->    6 (A) B       3 (A) B      
 -0.0034205955       1 (A) A       1 (A) B     ->    3 (A) A       3 (A) B      
  0.0034205955       1 (A) A       1 (A) B     ->    3 (A) B       3 (A) A      
  0.0034205955       1 (A) B       1 (A) A     ->    3 (A) A       3 (A) B      
 -0.0034205955       1 (A) B       1 (A) A     ->    3 (A) B       3 (A) A      
 -0.0033239056       1 (A) A       2 (A) B     ->    3 (A) A       3 (A) B      
 -0.0033239056       2 (A) A       1 (A) B     ->    3 (A) A       3 (A) B      
  0.0033239056       1 (A) A       2 (A) B     ->    3 (A) B       3 (A) A      
  0.0033239056       2 (A) A       1 (A) B     ->    3 (A) B       3 (A) A      
  0.0033239056       2 (A) B       1 (A) A     ->    3 (A) A       3 (A) B      
  0.0033239056       1 (A) B       2 (A) A     ->    3 (A) A       3 (A) B      
 -0.0033239056       1 (A) B       2 (A) A     ->    3 (A) B       3 (A) A      
 -0.0033239056       2 (A) B       1 (A) A     ->    3 (A) B       3 (A) A      
 -0.0025971432       1 (A) A       2 (A) B     ->    5 (A) A       5 (A) B      
 -0.0025971432       2 (A) A       1 (A) B     ->    5 (A) A       5 (A) B      
  0.0025971432       1 (A) A       2 (A) B     ->    5 (A) B       5 (A) A      
  0.0025971432       2 (A) A       1 (A) B     ->    5 (A) B       5 (A) A      
  0.0025971432       2 (A) B       1 (A) A     ->    5 (A) A       5 (A) B      
  0.0025971432       1 (A) B       2 (A) A     ->    5 (A) A       5 (A) B      
 -0.0025971432       1 (A) B       2 (A) A     ->    5 (A) B       5 (A) A      
 -0.0025971432       2 (A) B       1 (A) A     ->    5 (A) B       5 (A) A      
 -0.0025971432       1 (A) A       2 (A) B     ->    4 (A) A       4 (A) B      
 -0.0025971432       2 (A) A       1 (A) B     ->    4 (A) A       4 (A) B      
  0.0025971432       1 (A) A       2 (A) B     ->    4 (A) B       4 (A) A      
  0.0025971432       2 (A) A       1 (A) B     ->    4 (A) B       4 (A) A      
  0.0025971432       2 (A) B       1 (A) A     ->    4 (A) A       4 (A) B      
  0.0025971432       1 (A) B       2 (A) A     ->    4 (A) A       4 (A) B      
 -0.0025971432       1 (A) B       2 (A) A     ->    4 (A) B       4 (A) A      
 -0.0025971432       2 (A) B       1 (A) A     ->    4 (A) B       4 (A) A      
  0.0014835534       1 (A) A       1 (A) B     ->    3 (A) A       6 (A) B      
  0.0014835534       1 (A) A       1 (A) B     ->    6 (A) A       3 (A) B      
 -0.0014835534       1 (A) A       1 (A) B     ->    6 (A) B       3 (A) A      
 -0.0014835534       1 (A) A       1 (A) B     ->    3 (A) B       6 (A) A      
 -0.0014835534       1 (A) B       1 (A) A     ->    3 (A) A       6 (A) B      
 -0.0014835534       1 (A) B       1 (A) A     ->    6 (A) A       3 (A) B      
  0.0014835534       1 (A) B       1 (A) A     ->    3 (A) B       6 (A) A      
  0.0014835534       1 (A) B       1 (A) A     ->    6 (A) B       3 (A) A      
 -0.0014351851       1 (A) A       2 (A) B     ->    6 (A) A       6 (A) B      
 -0.0014351851       2 (A) A       1 (A) B     ->    6 (A) A       6 (A) B      
  0.0014351851       1 (A) A       2 (A) B     ->    6 (A) B       6 (A) A      
  0.0014351851       2 (A) A       1 (A) B     ->    6 (A) B       6 (A) A      
  0.0014351851       2 (A) B       1 (A) A     ->    6 (A) A       6 (A) B      
  0.0014351851       1 (A) B       2 (A) A     ->    6 (A) A       6 (A) B      
 -0.0014351851       1 (A) B       2 (A) A     ->    6 (A) B       6 (A) A      
 -0.0014351851       2 (A) B       1 (A) A     ->    6 (A) B       6 (A) A      
 -0.0012455306       1 (A) A       2 (A) B     ->    3 (A) A       6 (A) B      
 -0.0012455306       2 (A) A       1 (A) B     ->    6 (A) A       3 (A) B      
  0.0012455306       1 (A) A       2 (A) B     ->    6 (A) B       3 (A) A      
  0.0012455306       2 (A) A       1 (A) B     ->    3 (A) B       6 (A) A      
  0.0012455306       2 (A) B       1 (A) A     ->    3 (A) A       6 (A) B      
  0.0012455306       1 (A) B       2 (A) A     ->    6 (A) A       3 (A) B      
 -0.0012455306       1 (A) B       2 (A) A     ->    3 (A) B       6 (A) A      
 -0.0012455306       2 (A) B       1 (A) A     ->    6 (A) B       3 (A) A      
  0.0005688804       1 (A) A       1 (A) B     ->    6 (A) A       6 (A) B      
 -0.0005688804       1 (A) A       1 (A) B     ->    6 (A) B       6 (A) A      
 -0.0005688804       1 (A) B       1 (A) A     ->    6 (A) A       6 (A) B      
  0.0005688804       1 (A) B       1 (A) A     ->    6 (A) B       6 (A) A      
  0.0001072890       1 (A) A       1 (A) B     ->    4 (A) A       4 (A) B      
 -0.0001072890       1 (A) A       1 (A) B     ->    4 (A) B       4 (A) A      
 -0.0001072890       1 (A) B       1 (A) A     ->    4 (A) A       4 (A) B      
  0.0001072890       1 (A) B       1 (A) A     ->    4 (A) B       4 (A) A      
  0.0001072890       1 (A) A       1 (A) B     ->    5 (A) A       5 (A) B      
 -0.0001072890       1 (A) A       1 (A) B     ->    5 (A) B       5 (A) A      
 -0.0001072890       1 (A) B       1 (A) A     ->    5 (A) A       5 (A) B      
  0.0001072890       1 (A) B       1 (A) A     ->    5 (A) B       5 (A) A      

              Summary of significant orbitals:

               Number  Type             Irrep      Energy
               1       Occ  Alpha       1 (A)     -2.3545
               2       Occ  Alpha       2 (A)     -0.2678
               1       Occ  Beta        1 (A)     -2.3545
               2       Occ  Beta        2 (A)     -0.2678
               3       Vir  Alpha       3 (A)      0.0760
               4       Vir  Alpha       4 (A)      0.1635
               5       Vir  Alpha       5 (A)      0.1635
               6       Vir  Alpha       6 (A)      0.4897
               3       Vir  Beta        3 (A)      0.0760
               4       Vir  Beta        4 (A)      0.1635
               5       Vir  Beta        5 (A)      0.1635
               6       Vir  Beta        6 (A)      0.4897


 EOMEE transition 2/A
 Total energy = -7.70332298 a.u.  Excitation energy = 4.65824756 eV.
 R0^2 = 0.0000  R1^2 = 0.8619  R2^2 = 0.1381  Res^2 = 6.89e-06
 Conv-d = yes

 Amplitude    Transitions between orbitals
 -0.6564330430       2 (A) A                   ->    5 (A) A                    
 -0.6564330430       2 (A) B                   ->    5 (A) B                    
 -0.0054906666       1 (A) A                   ->    5 (A) A                    
 -0.0054906666       1 (A) B                   ->    5 (A) B                    
  0.2098217934       2 (A) A       2 (A) B     ->    5 (A) A       6 (A) B      
  0.2098217934       2 (A) A       2 (A) B     ->    6 (A) A       5 (A) B      
 -0.2098217934       2 (A) A       2 (A) B     ->    6 (A) B       5 (A) A      
 -0.2098217934       2 (A) A       2 (A) B     ->    5 (A) B       6 (A) A      
 -0.2098217934       2 (A) B       2 (A) A     ->    5 (A) A       6 (A) B      
 -0.2098217934       2 (A) B       2 (A) A     ->    6 (A) A       5 (A) B      
  0.2098217934       2 (A) B       2 (A) A     ->    5 (A) B       6 (A) A      
  0.2098217934       2 (A) B       2 (A) A     ->    6 (A) B       5 (A) A      
 -0.1581233169       2 (A) A       2 (A) B     ->    3 (A) A       5 (A) B      
 -0.1581233169       2 (A) A       2 (A) B     ->    5 (A) A       3 (A) B      
  0.1581233169       2 (A) A       2 (A) B     ->    5 (A) B       3 (A) A      
  0.1581233169       2 (A) A       2 (A) B     ->    3 (A) B       5 (A) A      
  0.1581233169       2 (A) B       2 (A) A     ->    3 (A) A       5 (A) B      
  0.1581233169       2 (A) B       2 (A) A     ->    5 (A) A       3 (A) B      
 -0.1581233169       2 (A) B       2 (A) A     ->    3 (A) B       5 (A) A      
 -0.1581233169       2 (A) B       2 (A) A     ->    5 (A) B       3 (A) A      
 -0.0036699094       1 (A) A       2 (A) A     ->    5 (A) A       6 (A) A      
  0.0036699094       1 (A) A       2 (A) A     ->    6 (A) A       5 (A) A      
  0.0036699094       2 (A) A       1 (A) A     ->    5 (A) A       6 (A) A      
 -0.0036699094       2 (A) A       1 (A) A     ->    6 (A) A       5 (A) A      
 -0.0036699094       1 (A) B       2 (A) B     ->    5 (A) B       6 (A) B      
  0.0036699094       1 (A) B       2 (A) B     ->    6 (A) B       5 (A) B      
  0.0036699094       2 (A) B       1 (A) B     ->    5 (A) B       6 (A) B      
 -0.0036699094       2 (A) B       1 (A) B     ->    6 (A) B       5 (A) B      
  0.0026110283       1 (A) A       2 (A) B     ->    6 (A) A       5 (A) B      
  0.0026110283       2 (A) A       1 (A) B     ->    5 (A) A       6 (A) B      
 -0.0026110283       1 (A) A       2 (A) B     ->    5 (A) B       6 (A) A      
 -0.0026110283       2 (A) A       1 (A) B     ->    6 (A) B       5 (A) A      
 -0.0026110283       2 (A) B       1 (A) A     ->    6 (A) A       5 (A) B      
 -0.0026110283       1 (A) B       2 (A) A     ->    5 (A) A       6 (A) B      
  0.0026110283       1 (A) B       2 (A) A     ->    6 (A) B       5 (A) A      
  0.0026110283       2 (A) B       1 (A) A     ->    5 (A) B       6 (A) A      
  0.0023992952       1 (A) A       2 (A) B     ->    5 (A) A       3 (A) B      
  0.0023992952       2 (A) A       1 (A) B     ->    3 (A) A       5 (A) B      
 -0.0023992952       1 (A) A       2 (A) B     ->    3 (A) B       5 (A) A      
 -0.0023992952       2 (A) A       1 (A) B     ->    5 (A) B       3 (A) A      
 -0.0023992952       2 (A) B       1 (A) A     ->    5 (A) A       3 (A) B      
 -0.0023992952       1 (A) B       2 (A) A     ->    3 (A) A       5 (A) B      
  0.0023992952       1 (A) B       2 (A) A     ->    5 (A) B       3 (A) A      
  0.0023992952       2 (A) B       1 (A) A     ->    3 (A) B       5 (A) A      
  0.0018863758       1 (A) A       2 (A) B     ->    3 (A) A       5 (A) B      
  0.0018863758       2 (A) A       1 (A) B     ->    5 (A) A       3 (A) B      
 -0.0018863758       1 (A) A       2 (A) B     ->    5 (A) B       3 (A) A      
 -0.0018863758       2 (A) A       1 (A) B     ->    3 (A) B       5 (A) A      
 -0.0018863758       2 (A) B       1 (A) A     ->    3 (A) A       5 (A) B      
 -0.0018863758       1 (A) B       2 (A) A     ->    5 (A) A       3 (A) B      
  0.0018863758       1 (A) B       2 (A) A     ->    3 (A) B       5 (A) A      
  0.0018863758       2 (A) B       1 (A) A     ->    5 (A) B       3 (A) A      
  0.0017864294       1 (A) A       1 (A) B     ->    3 (A) A       5 (A) B      
  0.0017864294       1 (A) A       1 (A) B     ->    5 (A) A       3 (A) B      
 -0.0017864294       1 (A) A       1 (A) B     ->    5 (A) B       3 (A) A      
 -0.0017864294       1 (A) A       1 (A) B     ->    3 (A) B       5 (A) A      
 -0.0017864294       1 (A) B       1 (A) A     ->    3 (A) A       5 (A) B      
 -0.0017864294       1 (A) B       1 (A) A     ->    5 (A) A       3 (A) B      
  0.0017864294       1 (A) B       1 (A) A     ->    3 (A) B       5 (A) A      
  0.0017864294       1 (A) B       1 (A) A     ->    5 (A) B       3 (A) A      
 -0.0017698726       1 (A) A       1 (A) B     ->    5 (A) A       6 (A) B      
 -0.0017698726       1 (A) A       1 (A) B     ->    6 (A) A       5 (A) B      
  0.0017698726       1 (A) A       1 (A) B     ->    6 (A) B       5 (A) A      
  0.0017698726       1 (A) A       1 (A) B     ->    5 (A) B       6 (A) A      
  0.0017698726       1 (A) B       1 (A) A     ->    5 (A) A       6 (A) B      
  0.0017698726       1 (A) B       1 (A) A     ->    6 (A) A       5 (A) B      
 -0.0017698726       1 (A) B       1 (A) A     ->    5 (A) B       6 (A) A      
 -0.0017698726       1 (A) B       1 (A) A     ->    6 (A) B       5 (A) A      
 -0.0010812381       1 (A) A       2 (A) B     ->    5 (A) A       6 (A) B      
 -0.0010812381       2 (A) A       1 (A) B     ->    6 (A) A       5 (A) B      
  0.0010812381       1 (A) A       2 (A) B     ->    6 (A) B       5 (A) A      
  0.0010812381       2 (A) A       1 (A) B     ->    5 (A) B       6 (A) A      
  0.0010812381       2 (A) B       1 (A) A     ->    5 (A) A       6 (A) B      
  0.0010812381       1 (A) B       2 (A) A     ->    6 (A) A       5 (A) B      
 -0.0010812381       1 (A) B       2 (A) A     ->    5 (A) B       6 (A) A      
 -0.0010812381       2 (A) B       1 (A) A     ->    6 (A) B       5 (A) A      
 -0.0005006784       1 (A) A       2 (A) A     ->    3 (A) A       5 (A) A      
  0.0005006784       1 (A) A       2 (A) A     ->    5 (A) A       3 (A) A      
  0.0005006784       2 (A) A       1 (A) A     ->    3 (A) A       5 (A) A      
 -0.0005006784       2 (A) A       1 (A) A     ->    5 (A) A       3 (A) A      
 -0.0005006784       1 (A) B       2 (A) B     ->    3 (A) B       5 (A) B      
  0.0005006784       1 (A) B       2 (A) B     ->    5 (A) B       3 (A) B      
  0.0005006784       2 (A) B       1 (A) B     ->    3 (A) B       5 (A) B      
 -0.0005006784       2 (A) B       1 (A) B     ->    5 (A) B       3 (A) B      

              Summary of significant orbitals:

               Number  Type             Irrep      Energy
               1       Occ  Alpha       1 (A)     -2.3545
               2       Occ  Alpha       2 (A)     -0.2678
               1       Occ  Beta        1 (A)     -2.3545
               2       Occ  Beta        2 (A)     -0.2678
               3       Vir  Alpha       3 (A)      0.0760
               5       Vir  Alpha       5 (A)      0.1635
               6       Vir  Alpha       6 (A)      0.4897
               3       Vir  Beta        3 (A)      0.0760
               5       Vir  Beta        5 (A)      0.1635
               6       Vir  Beta        6 (A)      0.4897


 EOMEE transition 3/A
 Total energy = -7.70332298 a.u.  Excitation energy = 4.65824757 eV.
 R0^2 = 0.0000  R1^2 = 0.8619  R2^2 = 0.1381  Res^2 = 6.89e-06
 Conv-d = yes

 Amplitude    Transitions between orbitals
 -0.6564330430       2 (A) A                   ->    4 (A) A                    
 -0.6564330430       2 (A) B                   ->    4 (A) B                    
 -0.0054906666       1 (A) A                   ->    4 (A) A                    
 -0.0054906666       1 (A) B                   ->    4 (A) B                    
  0.2098217934       2 (A) A       2 (A) B     ->    4 (A) A       6 (A) B      
  0.2098217934       2 (A) A       2 (A) B     ->    6 (A) A       4 (A) B      
 -0.2098217934       2 (A) A       2 (A) B     ->    6 (A) B       4 (A) A      
 -0.2098217934       2 (A) A       2 (A) B     ->    4 (A) B       6 (A) A      
 -0.2098217934       2 (A) B       2 (A) A     ->    4 (A) A       6 (A) B      
 -0.2098217934       2 (A) B       2 (A) A     ->    6 (A) A       4 (A) B      
  0.2098217934       2 (A) B       2 (A) A     ->    4 (A) B       6 (A) A      
  0.2098217934       2 (A) B       2 (A) A     ->    6 (A) B       4 (A) A      
 -0.1581233169       2 (A) A       2 (A) B     ->    3 (A) A       4 (A) B      
 -0.1581233169       2 (A) A       2 (A) B     ->    4 (A) A       3 (A) B      
  0.1581233169       2 (A) A       2 (A) B     ->    4 (A) B       3 (A) A      
  0.1581233169       2 (A) A       2 (A) B     ->    3 (A) B       4 (A) A      
  0.1581233169       2 (A) B       2 (A) A     ->    3 (A) A       4 (A) B      
  0.1581233169       2 (A) B       2 (A) A     ->    4 (A) A       3 (A) B      
 -0.1581233169       2 (A) B       2 (A) A     ->    3 (A) B       4 (A) A      
 -0.1581233169       2 (A) B       2 (A) A     ->    4 (A) B       3 (A) A      
 -0.0036699094       1 (A) A       2 (A) A     ->    4 (A) A       6 (A) A      
  0.0036699094       1 (A) A       2 (A) A     ->    6 (A) A       4 (A) A      
  0.0036699094       2 (A) A       1 (A) A     ->    4 (A) A       6 (A) A      
 -0.0036699094       2 (A) A       1 (A) A     ->    6 (A) A       4 (A) A      
 -0.0036699094       1 (A) B       2 (A) B     ->    4 (A) B       6 (A) B      
  0.0036699094       1 (A) B       2 (A) B     ->    6 (A) B       4 (A) B      
  0.0036699094       2 (A) B       1 (A) B     ->    4 (A) B       6 (A) B      
 -0.0036699094       2 (A) B       1 (A) B     ->    6 (A) B       4 (A) B      
  0.0026110283       1 (A) A       2 (A) B     ->    6 (A) A       4 (A) B      
  0.0026110283       2 (A) A       1 (A) B     ->    4 (A) A       6 (A) B      
 -0.0026110283       1 (A) A       2 (A) B     ->    4 (A) B       6 (A) A      
 -0.0026110283       2 (A) A       1 (A) B     ->    6 (A) B       4 (A) A      
 -0.0026110283       2 (A) B       1 (A) A     ->    6 (A) A       4 (A) B      
 -0.0026110283       1 (A) B       2 (A) A     ->    4 (A) A       6 (A) B      
  0.0026110283       1 (A) B       2 (A) A     ->    6 (A) B       4 (A) A      
  0.0026110283       2 (A) B       1 (A) A     ->    4 (A) B       6 (A) A      
  0.0023992952       1 (A) A       2 (A) B     ->    4 (A) A       3 (A) B      
  0.0023992952       2 (A) A       1 (A) B     ->    3 (A) A       4 (A) B      
 -0.0023992952       1 (A) A       2 (A) B     ->    3 (A) B       4 (A) A      
 -0.0023992952       2 (A) A       1 (A) B     ->    4 (A) B       3 (A) A      
 -0.0023992952       2 (A) B       1 (A) A     ->    4 (A) A       3 (A) B      
 -0.0023992952       1 (A) B       2 (A) A     ->    3 (A) A       4 (A) B      
  0.0023992952       1 (A) B       2 (A) A     ->    4 (A) B       3 (A) A      
  0.0023992952       2 (A) B       1 (A) A     ->    3 (A) B       4 (A) A      
  0.0018863758       1 (A) A       2 (A) B     ->    3 (A) A       4 (A) B      
  0.0018863758       2 (A) A       1 (A) B     ->    4 (A) A       3 (A) B      
 -0.0018863758       1 (A) A       2 (A) B     ->    4 (A) B       3 (A) A      
 -0.0018863758       2 (A) A       1 (A) B     ->    3 (A) B       4 (A) A      
 -0.0018863758       2 (A) B       1 (A) A     ->    3 (A) A       4 (A) B      
 -0.0018863758       1 (A) B       2 (A) A     ->    4 (A) A       3 (A) B      
  0.0018863758       1 (A) B       2 (A) A     ->    3 (A) B       4 (A) A      
  0.0018863758       2 (A) B       1 (A) A     ->    4 (A) B       3 (A) A      
  0.0017864294       1 (A) A       1 (A) B     ->    3 (A) A       4 (A) B      
  0.0017864294       1 (A) A       1 (A) B     ->    4 (A) A       3 (A) B      
 -0.0017864294       1 (A) A       1 (A) B     ->    4 (A) B       3 (A) A      
 -0.0017864294       1 (A) A       1 (A) B     ->    3 (A) B       4 (A) A      
 -0.0017864294       1 (A) B       1 (A) A     ->    3 (A) A       4 (A) B      
 -0.0017864294       1 (A) B       1 (A) A     ->    4 (A) A       3 (A) B      
  0.0017864294       1 (A) B       1 (A) A     ->    3 (A) B       4 (A) A      
  0.0017864294       1 (A) B       1 (A) A     ->    4 (A) B       3 (A) A      
 -0.0017698726       1 (A) A       1 (A) B     ->    4 (A) A       6 (A) B      
 -0.0017698726       1 (A) A       1 (A) B     ->    6 (A) A       4 (A) B      
  0.0017698726       1 (A) A       1 (A) B     ->    6 (A) B       4 (A) A      
  0.0017698726       1 (A) A       1 (A) B     ->    4 (A) B       6 (A) A      
  0.0017698726       1 (A) B       1 (A) A     ->    4 (A) A       6 (A) B      
  0.0017698726       1 (A) B       1 (A) A     ->    6 (A) A       4 (A) B      
 -0.0017698726       1 (A) B       1 (A) A     ->    4 (A) B       6 (A) A      
 -0.0017698726       1 (A) B       1 (A) A     ->    6 (A) B       4 (A) A      
 -0.0010812381       1 (A) A       2 (A) B     ->    4 (A) A       6 (A) B      
 -0.0010812381       2 (A) A       1 (A) B     ->    6 (A) A       4 (A) B      
  0.0010812381       1 (A) A       2 (A) B     ->    6 (A) B       4 (A) A      
  0.0010812381       2 (A) A       1 (A) B     ->    4 (A) B       6 (A) A      
  0.0010812381       2 (A) B       1 (A) A     ->    4 (A) A       6 (A) B      
  0.0010812381       1 (A) B       2 (A) A     ->    6 (A) A       4 (A) B      
 -0.0010812381       1 (A) B       2 (A) A     ->    4 (A) B       6 (A) A      
 -0.0010812381       2 (A) B       1 (A) A     ->    6 (A) B       4 (A) A      
 -0.0005006784       1 (A) A       2 (A) A     ->    3 (A) A       4 (A) A      
  0.0005006784       1 (A) A       2 (A) A     ->    4 (A) A       3 (A) A      
  0.0005006784       2 (A) A       1 (A) A     ->    3 (A) A       4 (A) A      
 -0.0005006784       2 (A) A       1 (A) A     ->    4 (A) A       3 (A) A      
 -0.0005006784       1 (A) B       2 (A) B     ->    3 (A) B       4 (A) B      
  0.0005006784       1 (A) B       2 (A) B     ->    4 (A) B       3 (A) B      
  0.0005006784       2 (A) B       1 (A) B     ->    3 (A) B       4 (A) B      
 -0.0005006784       2 (A) B       1 (A) B     ->    4 (A) B       3 (A) B      

              Summary of significant orbitals:

               Number  Type             Irrep      Energy
               1       Occ  Alpha       1 (A)     -2.3545
               2       Occ  Alpha       2 (A)     -0.2678
               1       Occ  Beta        1 (A)     -2.3545
               2       Occ  Beta        2 (A)     -0.2678
               3       Vir  Alpha       3 (A)      0.0760
               4       Vir  Alpha       4 (A)      0.1635
               6       Vir  Alpha       6 (A)      0.4897
               3       Vir  Beta        3 (A)      0.0760
               4       Vir  Beta        4 (A)      0.1635
               6       Vir  Beta        6 (A)      0.4897


 EEs and amplitudes of EOMEE has be exported to fchk file
Running a double precision version
      EOM-CCSD/MP2 left amplitudes will be solved using Davidson.
        Amplitudes will be solved using MOM  algorithm.
     Hard-coded thresholds: 
     LinDepThresh=1.00e-15  NormThresh=1.00e-06  ReorthogonThresh=1.00e-02

      Roots     MaxVec    MaxIter   Precond   Conv      Shift    
      3         120       60        1         1.00e-05  0.00e+00  
 ------------------------------------------------------------------------------
      Iter ConvRoots NVecs ResNorm Current eigenvalues (eV)
 ------------------------------------------------------------------------------
      0    0      3     8.78e-04   3.2908   4.6582   4.6582   
      1    0      6     3.45e-04   3.2912   4.6593   4.6593   
      2    2      9     1.13e-05   3.2912   4.6597*  4.6597*  
      3    3      10    2.20e-06   3.2911*  4.6597*  4.6597*  

     Davidson procedure converged

biorthogonolize_left_to_right(): degenerate block detected, ndeg=2

 Excited state properties for  EOMEE-CCSD transition 1/A
 Dipole moment (a.u.): 1.680876 (X 0.000000, Y 0.000000, Z 1.680876)
 R-squared (a.u.): 26.151073 (XX 4.169527, YY 4.169527, ZZ 17.812019)
 Gauge origin (a.u.): (0.000000, 0.000000, 0.000000)
 Angular momentum (a.u.) against gauge origin: 
 (X 0.000000i, Y 0.000000i, Z 0.000000i)
 Traces of the OPDMs: Tr(AA) 2.000000, Tr(BB) 2.000000

 Excited state properties for  EOMEE-CCSD transition 2/A
 Dipole moment (a.u.): 0.142976 (X 0.000000, Y 0.000000, Z 0.142976)
 R-squared (a.u.): 23.301133 (XX 5.859927, YY 5.859927, ZZ 11.581278)
 Gauge origin (a.u.): (0.000000, 0.000000, 0.000000)
 Angular momentum (a.u.) against gauge origin: 
 (X 0.000000i, Y 0.000000i, Z 0.000000i)
 Traces of the OPDMs: Tr(AA) 2.000000, Tr(BB) 2.000000

 Excited state properties for  EOMEE-CCSD transition 3/A
 Dipole moment (a.u.): 0.142976 (X 0.000000, Y 0.000000, Z 0.142976)
 R-squared (a.u.): 23.301133 (XX 5.859927, YY 5.859927, ZZ 11.581278)
 Gauge origin (a.u.): (0.000000, 0.000000, 0.000000)
 Angular momentum (a.u.) against gauge origin: 
 (X 0.000000i, Y 0.000000i, Z 0.000000i)
 Traces of the OPDMs: Tr(AA) 2.000000, Tr(BB) 2.000000

        Solving for EOMEE-CCSD A triplet states.

Running a double precision version
        EOMEE-CCSD/MP2 right amplitudes will be solved using Davidson.
        Amplitudes will be solved using standard  algorithm.
     Hard-coded thresholds: 
     LinDepThresh=1.00e-15  NormThresh=1.00e-06  ReorthogonThresh=1.00e-02

      Roots     MaxVec    MaxIter   Precond   Conv      Shift    
      3         120       60        1         1.00e-05  0.00e+00  
 ------------------------------------------------------------------------------
      Iter ConvRoots NVecs ResNorm Current eigenvalues (eV)
 ------------------------------------------------------------------------------
      0    0      3     2.01e-02   4.0510   5.3443   5.3443   
      1    0      6     1.92e-02   2.9534   4.4214   4.4214   
      2    0      9     6.91e-04   2.7636   4.2427   4.2427   
      3    0      12    6.38e-05   2.7538   4.2419   4.2419   
      4    3      15    1.00e-06   2.7516*  4.2439*  4.2439*  

     Davidson procedure converged

 EOMEE transition 1/A
 Total energy = -7.77339009 a.u.  Excitation energy = 2.75162452 eV.
 R0^2 = 0.0000  R1^2 = 0.9426  R2^2 = 0.0574  Res^2 = 1.97e-06
 Conv-d = yes

 Amplitude    Transitions between orbitals
 -0.6758803232       2 (A) A                   ->    3 (A) A                    
  0.6758803232       2 (A) B                   ->    3 (A) B                    
  0.1202688395       2 (A) A                   ->    6 (A) A                    
 -0.1202688395       2 (A) B                   ->    6 (A) B                    
 -0.0034678353       1 (A) A                   ->    3 (A) A                    
  0.0034678353       1 (A) B                   ->    3 (A) B                    
 -0.0009011617       1 (A) A                   ->    6 (A) A                    
  0.0009011617       1 (A) B                   ->    6 (A) B                    
  0.1691404403       2 (A) A       2 (A) B     ->    3 (A) A       6 (A) B      
 -0.1691404403       2 (A) A       2 (A) B     ->    6 (A) A       3 (A) B      
 -0.1691404403       2 (A) A       2 (A) B     ->    6 (A) B       3 (A) A      
  0.1691404403       2 (A) A       2 (A) B     ->    3 (A) B       6 (A) A      
 -0.1691404403       2 (A) B       2 (A) A     ->    3 (A) A       6 (A) B      
  0.1691404403       2 (A) B       2 (A) A     ->    6 (A) A       3 (A) B      
 -0.1691404403       2 (A) B       2 (A) A     ->    3 (A) B       6 (A) A      
  0.1691404403       2 (A) B       2 (A) A     ->    6 (A) B       3 (A) A      
 -0.0059681635       1 (A) A       2 (A) B     ->    6 (A) A       3 (A) B      
  0.0059681635       2 (A) A       1 (A) B     ->    3 (A) A       6 (A) B      
  0.0059681635       1 (A) A       2 (A) B     ->    3 (A) B       6 (A) A      
 -0.0059681635       2 (A) A       1 (A) B     ->    6 (A) B       3 (A) A      
  0.0059681635       2 (A) B       1 (A) A     ->    6 (A) A       3 (A) B      
 -0.0059681635       1 (A) B       2 (A) A     ->    3 (A) A       6 (A) B      
  0.0059681635       1 (A) B       2 (A) A     ->    6 (A) B       3 (A) A      
 -0.0059681635       2 (A) B       1 (A) A     ->    3 (A) B       6 (A) A      
 -0.0044789539       1 (A) A       2 (A) A     ->    3 (A) A       6 (A) A      
  0.0044789539       1 (A) A       2 (A) A     ->    6 (A) A       3 (A) A      
  0.0044789539       2 (A) A       1 (A) A     ->    3 (A) A       6 (A) A      
 -0.0044789539       2 (A) A       1 (A) A     ->    6 (A) A       3 (A) A      
  0.0044789539       1 (A) B       2 (A) B     ->    3 (A) B       6 (A) B      
 -0.0044789539       1 (A) B       2 (A) B     ->    6 (A) B       3 (A) B      
 -0.0044789539       2 (A) B       1 (A) B     ->    3 (A) B       6 (A) B      
  0.0044789539       2 (A) B       1 (A) B     ->    6 (A) B       3 (A) B      
 -0.0040484840       1 (A) A       2 (A) B     ->    3 (A) A       3 (A) B      
  0.0040484840       2 (A) A       1 (A) B     ->    3 (A) A       3 (A) B      
  0.0040484840       1 (A) A       2 (A) B     ->    3 (A) B       3 (A) A      
 -0.0040484840       2 (A) A       1 (A) B     ->    3 (A) B       3 (A) A      
  0.0040484840       2 (A) B       1 (A) A     ->    3 (A) A       3 (A) B      
 -0.0040484840       1 (A) B       2 (A) A     ->    3 (A) A       3 (A) B      
  0.0040484840       1 (A) B       2 (A) A     ->    3 (A) B       3 (A) A      
 -0.0040484840       2 (A) B       1 (A) A     ->    3 (A) B       3 (A) A      
 -0.0035019781       1 (A) A       2 (A) B     ->    5 (A) A       5 (A) B      
  0.0035019781       2 (A) A       1 (A) B     ->    5 (A) A       5 (A) B      
  0.0035019781       1 (A) A       2 (A) B     ->    5 (A) B       5 (A) A      
 -0.0035019781       2 (A) A       1 (A) B     ->    5 (A) B       5 (A) A      
  0.0035019781       2 (A) B       1 (A) A     ->    5 (A) A       5 (A) B      
 -0.0035019781       1 (A) B       2 (A) A     ->    5 (A) A       5 (A) B      
  0.0035019781       1 (A) B       2 (A) A     ->    5 (A) B       5 (A) A      
 -0.0035019781       2 (A) B       1 (A) A     ->    5 (A) B       5 (A) A      
 -0.0035019781       1 (A) A       2 (A) B     ->    4 (A) A       4 (A) B      
  0.0035019781       2 (A) A       1 (A) B     ->    4 (A) A       4 (A) B      
  0.0035019781       1 (A) A       2 (A) B     ->    4 (A) B       4 (A) A      
 -0.0035019781       2 (A) A       1 (A) B     ->    4 (A) B       4 (A) A      
  0.0035019781       2 (A) B       1 (A) A     ->    4 (A) A       4 (A) B      
 -0.0035019781       1 (A) B       2 (A) A     ->    4 (A) A       4 (A) B      
  0.0035019781       1 (A) B       2 (A) A     ->    4 (A) B       4 (A) A      
 -0.0035019781       2 (A) B       1 (A) A     ->    4 (A) B       4 (A) A      
 -0.0014251032       1 (A) A       1 (A) B     ->    3 (A) A       6 (A) B      
  0.0014251032       1 (A) A       1 (A) B     ->    6 (A) A       3 (A) B      
  0.0014251032       1 (A) A       1 (A) B     ->    6 (A) B       3 (A) A      
 -0.0014251032       1 (A) A       1 (A) B     ->    3 (A) B       6 (A) A      
  0.0014251032       1 (A) B       1 (A) A     ->    3 (A) A       6 (A) B      
 -0.0014251032       1 (A) B       1 (A) A     ->    6 (A) A       3 (A) B      
  0.0014251032       1 (A) B       1 (A) A     ->    3 (A) B       6 (A) A      
 -0.0014251032       1 (A) B       1 (A) A     ->    6 (A) B       3 (A) A      
 -0.0008866607       1 (A) A       2 (A) B     ->    3 (A) A       6 (A) B      
  0.0008866607       2 (A) A       1 (A) B     ->    6 (A) A       3 (A) B      
  0.0008866607       1 (A) A       2 (A) B     ->    6 (A) B       3 (A) A      
 -0.0008866607       2 (A) A       1 (A) B     ->    3 (A) B       6 (A) A      
  0.0008866607       2 (A) B       1 (A) A     ->    3 (A) A       6 (A) B      
 -0.0008866607       1 (A) B       2 (A) A     ->    6 (A) A       3 (A) B      
  0.0008866607       1 (A) B       2 (A) A     ->    3 (A) B       6 (A) A      
 -0.0008866607       2 (A) B       1 (A) A     ->    6 (A) B       3 (A) A      
 -0.0006733675       1 (A) A       2 (A) B     ->    6 (A) A       6 (A) B      
  0.0006733675       2 (A) A       1 (A) B     ->    6 (A) A       6 (A) B      
  0.0006733675       1 (A) A       2 (A) B     ->    6 (A) B       6 (A) A      
 -0.0006733675       2 (A) A       1 (A) B     ->    6 (A) B       6 (A) A      
  0.0006733675       2 (A) B       1 (A) A     ->    6 (A) A       6 (A) B      
 -0.0006733675       1 (A) B       2 (A) A     ->    6 (A) A       6 (A) B      
  0.0006733675       1 (A) B       2 (A) A     ->    6 (A) B       6 (A) A      
 -0.0006733675       2 (A) B       1 (A) A     ->    6 (A) B       6 (A) A      

              Summary of significant orbitals:

               Number  Type             Irrep      Energy
               1       Occ  Alpha       1 (A)     -2.3545
               2       Occ  Alpha       2 (A)     -0.2678
               1       Occ  Beta        1 (A)     -2.3545
               2       Occ  Beta        2 (A)     -0.2678
               3       Vir  Alpha       3 (A)      0.0760
               4       Vir  Alpha       4 (A)      0.1635
               5       Vir  Alpha       5 (A)      0.1635
               6       Vir  Alpha       6 (A)      0.4897
               3       Vir  Beta        3 (A)      0.0760
               4       Vir  Beta        4 (A)      0.1635
               5       Vir  Beta        5 (A)      0.1635
               6       Vir  Beta        6 (A)      0.4897


 EOMEE transition 2/A
 Total energy = -7.71855057 a.u.  Excitation energy = 4.24388392 eV.
 R0^2 = 0.0000  R1^2 = 0.9050  R2^2 = 0.0950  Res^2 = 5.15e-07
 Conv-d = yes

 Amplitude    Transitions between orbitals
  0.6726751320       2 (A) A                   ->    5 (A) A                    
 -0.6726751320       2 (A) B                   ->    5 (A) B                    
  0.0013676080       1 (A) A                   ->    5 (A) A                    
 -0.0013676080       1 (A) B                   ->    5 (A) B                    
 -0.1749726018       2 (A) A       2 (A) B     ->    5 (A) A       6 (A) B      
  0.1749726018       2 (A) A       2 (A) B     ->    6 (A) A       5 (A) B      
  0.1749726018       2 (A) A       2 (A) B     ->    6 (A) B       5 (A) A      
 -0.1749726018       2 (A) A       2 (A) B     ->    5 (A) B       6 (A) A      
  0.1749726018       2 (A) B       2 (A) A     ->    5 (A) A       6 (A) B      
 -0.1749726018       2 (A) B       2 (A) A     ->    6 (A) A       5 (A) B      
  0.1749726018       2 (A) B       2 (A) A     ->    5 (A) B       6 (A) A      
 -0.1749726018       2 (A) B       2 (A) A     ->    6 (A) B       5 (A) A      
 -0.1297196419       2 (A) A       2 (A) B     ->    3 (A) A       5 (A) B      
  0.1297196419       2 (A) A       2 (A) B     ->    5 (A) A       3 (A) B      
  0.1297196419       2 (A) A       2 (A) B     ->    5 (A) B       3 (A) A      
 -0.1297196419       2 (A) A       2 (A) B     ->    3 (A) B       5 (A) A      
  0.1297196419       2 (A) B       2 (A) A     ->    3 (A) A       5 (A) B      
 -0.1297196419       2 (A) B       2 (A) A     ->    5 (A) A       3 (A) B      
  0.1297196419       2 (A) B       2 (A) A     ->    3 (A) B       5 (A) A      
 -0.1297196419       2 (A) B       2 (A) A     ->    5 (A) B       3 (A) A      
  0.0052874642       1 (A) A       2 (A) A     ->    5 (A) A       6 (A) A      
 -0.0052874642       1 (A) A       2 (A) A     ->    6 (A) A       5 (A) A      
 -0.0052874642       2 (A) A       1 (A) A     ->    5 (A) A       6 (A) A      
  0.0052874642       2 (A) A       1 (A) A     ->    6 (A) A       5 (A) A      
 -0.0052874642       1 (A) B       2 (A) B     ->    5 (A) B       6 (A) B      
  0.0052874642       1 (A) B       2 (A) B     ->    6 (A) B       5 (A) B      
  0.0052874642       2 (A) B       1 (A) B     ->    5 (A) B       6 (A) B      
 -0.0052874642       2 (A) B       1 (A) B     ->    6 (A) B       5 (A) B      
  0.0035152676       1 (A) A       2 (A) B     ->    5 (A) A       3 (A) B      
 -0.0035152676       2 (A) A       1 (A) B     ->    3 (A) A       5 (A) B      
 -0.0035152676       1 (A) A       2 (A) B     ->    3 (A) B       5 (A) A      
  0.0035152676       2 (A) A       1 (A) B     ->    5 (A) B       3 (A) A      
 -0.0035152676       2 (A) B       1 (A) A     ->    5 (A) A       3 (A) B      
  0.0035152676       1 (A) B       2 (A) A     ->    3 (A) A       5 (A) B      
 -0.0035152676       1 (A) B       2 (A) A     ->    5 (A) B       3 (A) A      
  0.0035152676       2 (A) B       1 (A) A     ->    3 (A) B       5 (A) A      
  0.0025524910       1 (A) A       2 (A) B     ->    6 (A) A       5 (A) B      
 -0.0025524910       2 (A) A       1 (A) B     ->    5 (A) A       6 (A) B      
 -0.0025524910       1 (A) A       2 (A) B     ->    5 (A) B       6 (A) A      
  0.0025524910       2 (A) A       1 (A) B     ->    6 (A) B       5 (A) A      
 -0.0025524910       2 (A) B       1 (A) A     ->    6 (A) A       5 (A) B      
  0.0025524910       1 (A) B       2 (A) A     ->    5 (A) A       6 (A) B      
 -0.0025524910       1 (A) B       2 (A) A     ->    6 (A) B       5 (A) A      
  0.0025524910       2 (A) B       1 (A) A     ->    5 (A) B       6 (A) A      
  0.0022111862       1 (A) A       2 (A) B     ->    3 (A) A       5 (A) B      
 -0.0022111862       2 (A) A       1 (A) B     ->    5 (A) A       3 (A) B      
 -0.0022111862       1 (A) A       2 (A) B     ->    5 (A) B       3 (A) A      
  0.0022111862       2 (A) A       1 (A) B     ->    3 (A) B       5 (A) A      
 -0.0022111862       2 (A) B       1 (A) A     ->    3 (A) A       5 (A) B      
  0.0022111862       1 (A) B       2 (A) A     ->    5 (A) A       3 (A) B      
 -0.0022111862       1 (A) B       2 (A) A     ->    3 (A) B       5 (A) A      
  0.0022111862       2 (A) B       1 (A) A     ->    5 (A) B       3 (A) A      
 -0.0019936464       1 (A) A       2 (A) B     ->    5 (A) A       6 (A) B      
  0.0019936464       2 (A) A       1 (A) B     ->    6 (A) A       5 (A) B      
  0.0019936464       1 (A) A       2 (A) B     ->    6 (A) B       5 (A) A      
 -0.0019936464       2 (A) A       1 (A) B     ->    5 (A) B       6 (A) A      
  0.0019936464       2 (A) B       1 (A) A     ->    5 (A) A       6 (A) B      
 -0.0019936464       1 (A) B       2 (A) A     ->    6 (A) A       5 (A) B      
  0.0019936464       1 (A) B       2 (A) A     ->    5 (A) B       6 (A) A      
 -0.0019936464       2 (A) B       1 (A) A     ->    6 (A) B       5 (A) A      
  0.0017273942       1 (A) A       1 (A) B     ->    3 (A) A       5 (A) B      
 -0.0017273942       1 (A) A       1 (A) B     ->    5 (A) A       3 (A) B      
 -0.0017273942       1 (A) A       1 (A) B     ->    5 (A) B       3 (A) A      
  0.0017273942       1 (A) A       1 (A) B     ->    3 (A) B       5 (A) A      
 -0.0017273942       1 (A) B       1 (A) A     ->    3 (A) A       5 (A) B      
  0.0017273942       1 (A) B       1 (A) A     ->    5 (A) A       3 (A) B      
 -0.0017273942       1 (A) B       1 (A) A     ->    3 (A) B       5 (A) A      
  0.0017273942       1 (A) B       1 (A) A     ->    5 (A) B       3 (A) A      
  0.0016154194       1 (A) A       1 (A) B     ->    5 (A) A       6 (A) B      
 -0.0016154194       1 (A) A       1 (A) B     ->    6 (A) A       5 (A) B      
 -0.0016154194       1 (A) A       1 (A) B     ->    6 (A) B       5 (A) A      
  0.0016154194       1 (A) A       1 (A) B     ->    5 (A) B       6 (A) A      
 -0.0016154194       1 (A) B       1 (A) A     ->    5 (A) A       6 (A) B      
  0.0016154194       1 (A) B       1 (A) A     ->    6 (A) A       5 (A) B      
 -0.0016154194       1 (A) B       1 (A) A     ->    5 (A) B       6 (A) A      
  0.0016154194       1 (A) B       1 (A) A     ->    6 (A) B       5 (A) A      
  0.0015532075       1 (A) A       2 (A) A     ->    3 (A) A       5 (A) A      
 -0.0015532075       1 (A) A       2 (A) A     ->    5 (A) A       3 (A) A      
 -0.0015532075       2 (A) A       1 (A) A     ->    3 (A) A       5 (A) A      
  0.0015532075       2 (A) A       1 (A) A     ->    5 (A) A       3 (A) A      
 -0.0015532075       1 (A) B       2 (A) B     ->    3 (A) B       5 (A) B      
  0.0015532075       1 (A) B       2 (A) B     ->    5 (A) B       3 (A) B      
  0.0015532075       2 (A) B       1 (A) B     ->    3 (A) B       5 (A) B      
 -0.0015532075       2 (A) B       1 (A) B     ->    5 (A) B       3 (A) B      

              Summary of significant orbitals:

               Number  Type             Irrep      Energy
               1       Occ  Alpha       1 (A)     -2.3545
               2       Occ  Alpha       2 (A)     -0.2678
               1       Occ  Beta        1 (A)     -2.3545
               2       Occ  Beta        2 (A)     -0.2678
               3       Vir  Alpha       3 (A)      0.0760
               5       Vir  Alpha       5 (A)      0.1635
               6       Vir  Alpha       6 (A)      0.4897
               3       Vir  Beta        3 (A)      0.0760
               5       Vir  Beta        5 (A)      0.1635
               6       Vir  Beta        6 (A)      0.4897


 EOMEE transition 3/A
 Total energy = -7.71855057 a.u.  Excitation energy = 4.24388393 eV.
 R0^2 = 0.0000  R1^2 = 0.9050  R2^2 = 0.0950  Res^2 = 5.15e-07
 Conv-d = yes

 Amplitude    Transitions between orbitals
 -0.6726751320       2 (A) A                   ->    4 (A) A                    
  0.6726751320       2 (A) B                   ->    4 (A) B                    
 -0.0013676080       1 (A) A                   ->    4 (A) A                    
  0.0013676080       1 (A) B                   ->    4 (A) B                    
  0.1749726018       2 (A) A       2 (A) B     ->    4 (A) A       6 (A) B      
 -0.1749726018       2 (A) A       2 (A) B     ->    6 (A) A       4 (A) B      
 -0.1749726018       2 (A) A       2 (A) B     ->    6 (A) B       4 (A) A      
  0.1749726018       2 (A) A       2 (A) B     ->    4 (A) B       6 (A) A      
 -0.1749726018       2 (A) B       2 (A) A     ->    4 (A) A       6 (A) B      
  0.1749726018       2 (A) B       2 (A) A     ->    6 (A) A       4 (A) B      
 -0.1749726018       2 (A) B       2 (A) A     ->    4 (A) B       6 (A) A      
  0.1749726018       2 (A) B       2 (A) A     ->    6 (A) B       4 (A) A      
  0.1297196419       2 (A) A       2 (A) B     ->    3 (A) A       4 (A) B      
 -0.1297196419       2 (A) A       2 (A) B     ->    4 (A) A       3 (A) B      
 -0.1297196419       2 (A) A       2 (A) B     ->    4 (A) B       3 (A) A      
  0.1297196419       2 (A) A       2 (A) B     ->    3 (A) B       4 (A) A      
 -0.1297196419       2 (A) B       2 (A) A     ->    3 (A) A       4 (A) B      
  0.1297196419       2 (A) B       2 (A) A     ->    4 (A) A       3 (A) B      
 -0.1297196419       2 (A) B       2 (A) A     ->    3 (A) B       4 (A) A      
  0.1297196419       2 (A) B       2 (A) A     ->    4 (A) B       3 (A) A      
 -0.0052874642       1 (A) A       2 (A) A     ->    4 (A) A       6 (A) A      
  0.0052874642       1 (A) A       2 (A) A     ->    6 (A) A       4 (A) A      
  0.0052874642       2 (A) A       1 (A) A     ->    4 (A) A       6 (A) A      
 -0.0052874642       2 (A) A       1 (A) A     ->    6 (A) A       4 (A) A      
  0.0052874642       1 (A) B       2 (A) B     ->    4 (A) B       6 (A) B      
 -0.0052874642       1 (A) B       2 (A) B     ->    6 (A) B       4 (A) B      
 -0.0052874642       2 (A) B       1 (A) B     ->    4 (A) B       6 (A) B      
  0.0052874642       2 (A) B       1 (A) B     ->    6 (A) B       4 (A) B      
 -0.0035152676       1 (A) A       2 (A) B     ->    4 (A) A       3 (A) B      
  0.0035152676       2 (A) A       1 (A) B     ->    3 (A) A       4 (A) B      
  0.0035152676       1 (A) A       2 (A) B     ->    3 (A) B       4 (A) A      
 -0.0035152676       2 (A) A       1 (A) B     ->    4 (A) B       3 (A) A      
  0.0035152676       2 (A) B       1 (A) A     ->    4 (A) A       3 (A) B      
 -0.0035152676       1 (A) B       2 (A) A     ->    3 (A) A       4 (A) B      
  0.0035152676       1 (A) B       2 (A) A     ->    4 (A) B       3 (A) A      
 -0.0035152676       2 (A) B       1 (A) A     ->    3 (A) B       4 (A) A      
 -0.0025524910       1 (A) A       2 (A) B     ->    6 (A) A       4 (A) B      
  0.0025524910       2 (A) A       1 (A) B     ->    4 (A) A       6 (A) B      
  0.0025524910       1 (A) A       2 (A) B     ->    4 (A) B       6 (A) A      
 -0.0025524910       2 (A) A       1 (A) B     ->    6 (A) B       4 (A) A      
  0.0025524910       2 (A) B       1 (A) A     ->    6 (A) A       4 (A) B      
 -0.0025524910       1 (A) B       2 (A) A     ->    4 (A) A       6 (A) B      
  0.0025524910       1 (A) B       2 (A) A     ->    6 (A) B       4 (A) A      
 -0.0025524910       2 (A) B       1 (A) A     ->    4 (A) B       6 (A) A      
 -0.0022111862       1 (A) A       2 (A) B     ->    3 (A) A       4 (A) B      
  0.0022111862       2 (A) A       1 (A) B     ->    4 (A) A       3 (A) B      
  0.0022111862       1 (A) A       2 (A) B     ->    4 (A) B       3 (A) A      
 -0.0022111862       2 (A) A       1 (A) B     ->    3 (A) B       4 (A) A      
  0.0022111862       2 (A) B       1 (A) A     ->    3 (A) A       4 (A) B      
 -0.0022111862       1 (A) B       2 (A) A     ->    4 (A) A       3 (A) B      
  0.0022111862       1 (A) B       2 (A) A     ->    3 (A) B       4 (A) A      
 -0.0022111862       2 (A) B       1 (A) A     ->    4 (A) B       3 (A) A      
  0.0019936464       1 (A) A       2 (A) B     ->    4 (A) A       6 (A) B      
 -0.0019936464       2 (A) A       1 (A) B     ->    6 (A) A       4 (A) B      
 -0.0019936464       1 (A) A       2 (A) B     ->    6 (A) B       4 (A) A      
  0.0019936464       2 (A) A       1 (A) B     ->    4 (A) B       6 (A) A      
 -0.0019936464       2 (A) B       1 (A) A     ->    4 (A) A       6 (A) B      
  0.0019936464       1 (A) B       2 (A) A     ->    6 (A) A       4 (A) B      
 -0.0019936464       1 (A) B       2 (A) A     ->    4 (A) B       6 (A) A      
  0.0019936464       2 (A) B       1 (A) A     ->    6 (A) B       4 (A) A      
 -0.0017273942       1 (A) A       1 (A) B     ->    3 (A) A       4 (A) B      
  0.0017273942       1 (A) A       1 (A) B     ->    4 (A) A       3 (A) B      
  0.0017273942       1 (A) A       1 (A) B     ->    4 (A) B       3 (A) A      
 -0.0017273942       1 (A) A       1 (A) B     ->    3 (A) B       4 (A) A      
  0.0017273942       1 (A) B       1 (A) A     ->    3 (A) A       4 (A) B      
 -0.0017273942       1 (A) B       1 (A) A     ->    4 (A) A       3 (A) B      
  0.0017273942       1 (A) B       1 (A) A     ->    3 (A) B       4 (A) A      
 -0.0017273942       1 (A) B       1 (A) A     ->    4 (A) B       3 (A) A      
 -0.0016154194       1 (A) A       1 (A) B     ->    4 (A) A       6 (A) B      
  0.0016154194       1 (A) A       1 (A) B     ->    6 (A) A       4 (A) B      
  0.0016154194       1 (A) A       1 (A) B     ->    6 (A) B       4 (A) A      
 -0.0016154194       1 (A) A       1 (A) B     ->    4 (A) B       6 (A) A      
  0.0016154194       1 (A) B       1 (A) A     ->    4 (A) A       6 (A) B      
 -0.0016154194       1 (A) B       1 (A) A     ->    6 (A) A       4 (A) B      
  0.0016154194       1 (A) B       1 (A) A     ->    4 (A) B       6 (A) A      
 -0.0016154194       1 (A) B       1 (A) A     ->    6 (A) B       4 (A) A      
 -0.0015532075       1 (A) A       2 (A) A     ->    3 (A) A       4 (A) A      
  0.0015532075       1 (A) A       2 (A) A     ->    4 (A) A       3 (A) A      
  0.0015532075       2 (A) A       1 (A) A     ->    3 (A) A       4 (A) A      
 -0.0015532075       2 (A) A       1 (A) A     ->    4 (A) A       3 (A) A      
  0.0015532075       1 (A) B       2 (A) B     ->    3 (A) B       4 (A) B      
 -0.0015532075       1 (A) B       2 (A) B     ->    4 (A) B       3 (A) B      
 -0.0015532075       2 (A) B       1 (A) B     ->    3 (A) B       4 (A) B      
  0.0015532075       2 (A) B       1 (A) B     ->    4 (A) B       3 (A) B      

              Summary of significant orbitals:

               Number  Type             Irrep      Energy
               1       Occ  Alpha       1 (A)     -2.3545
               2       Occ  Alpha       2 (A)     -0.2678
               1       Occ  Beta        1 (A)     -2.3545
               2       Occ  Beta        2 (A)     -0.2678
               3       Vir  Alpha       3 (A)      0.0760
               4       Vir  Alpha       4 (A)      0.1635
               6       Vir  Alpha       6 (A)      0.4897
               3       Vir  Beta        3 (A)      0.0760
               4       Vir  Beta        4 (A)      0.1635
               6       Vir  Beta        6 (A)      0.4897


 EEs and amplitudes of EOMEE has be exported to fchk file
Running a double precision version
      EOM-CCSD/MP2 left amplitudes will be solved using Davidson.
        Amplitudes will be solved using MOM  algorithm.
     Hard-coded thresholds: 
     LinDepThresh=1.00e-15  NormThresh=1.00e-06  ReorthogonThresh=1.00e-02

      Roots     MaxVec    MaxIter   Precond   Conv      Shift    
      3         120       60        1         1.00e-05  0.00e+00  
 ------------------------------------------------------------------------------
      Iter ConvRoots NVecs ResNorm Current eigenvalues (eV)
 ------------------------------------------------------------------------------
      0    0      3     3.26e-04   2.7516   4.2439   4.2439   
      1    0      6     1.69e-04   2.7515   4.2439   4.2439   
      2    1      9     6.99e-06   2.7516*  4.2440   4.2440   
      3    3      11    5.28e-07   2.7516*  4.2440*  4.2440*  

     Davidson procedure converged

biorthogonolize_left_to_right(): degenerate block detected, ndeg=2

 Excited state properties for  EOMEE-CCSD transition 1/A
 Dipole moment (a.u.): 1.547944 (X 0.000000, Y 0.000000, Z 1.547944)
 R-squared (a.u.): 26.078086 (XX 4.980652, YY 4.980652, ZZ 16.116783)
 Gauge origin (a.u.): (0.000000, 0.000000, 0.000000)
 Angular momentum (a.u.) against gauge origin: 
 (X 0.000000i, Y 0.000000i, Z 0.000000i)
 Traces of the OPDMs: Tr(AA) 2.000000, Tr(BB) 2.000000

 Excited state properties for  EOMEE-CCSD transition 2/A
 Dipole moment (a.u.): 0.217480 (X 0.000000, Y 0.000000, Z 0.217480)
 R-squared (a.u.): 23.323568 (XX 5.989885, YY 5.989865, ZZ 11.343819)
 Gauge origin (a.u.): (0.000000, 0.000000, 0.000000)
 Angular momentum (a.u.) against gauge origin: 
 (X 0.000000i, Y 0.000000i, Z 0.000000i)
 Traces of the OPDMs: Tr(AA) 2.000000, Tr(BB) 2.000000

 Excited state properties for  EOMEE-CCSD transition 3/A
 Dipole moment (a.u.): 0.217480 (X 0.000000, Y 0.000000, Z 0.217480)
 R-squared (a.u.): 23.323568 (XX 5.989865, YY 5.989885, ZZ 11.343819)
 Gauge origin (a.u.): (0.000000, 0.000000, 0.000000)
 Angular momentum (a.u.) against gauge origin: 
 (X 0.000000i, Y 0.000000i, Z 0.000000i)
 Traces of the OPDMs: Tr(AA) 2.000000, Tr(BB) 2.000000

 EOMEE-CCSD calculation:   CPU 2.44 s  wall 1.94 s

 Total ccman2 time:   CPU 3.34 s  wall 2.57 s


 --------------------------------------------------------------

                    Orbital Energies (a.u.)
 --------------------------------------------------------------

 Alpha MOs
 -- Occupied --
 -2.3545  -0.2678
 -- Virtual --
  0.0760   0.1635   0.1635   0.4897
 --------------------------------------------------------------

          Ground-State Mulliken Net Atomic Charges

     Atom                 Charge (a.u.)
  ----------------------------------------
      1 Li                   -0.015861
      2 H                     0.015861
  ----------------------------------------
  Sum of atomic charges =     0.000000

 -----------------------------------------------------------------
                    Cartesian Multipole Moments
 -----------------------------------------------------------------
    Charge (ESU x 10^10)
                 0.0000
    Dipole Moment (Debye)
         X       0.0000      Y      -0.0000      Z      -4.5765
       Tot       4.5765
    Quadrupole Moments (Debye-Ang)
        XX      -5.6234     XY       0.0000     YY      -5.6234
        XZ       0.0000     YZ       0.0000     ZZ      -4.4326
    Octopole Moments (Debye-Ang^2)
       XXX       0.0000    XXY       0.0000    XYY       0.0000
       YYY       0.0000    XXZ      -3.0147    XYZ      -0.0000
       YYZ      -3.0147    XZZ       0.0000    YZZ       0.0000
       ZZZ      -9.0240
    Hexadecapole Moments (Debye-Ang^3)
      XXXX     -14.2531   XXXY       0.0000   XXYY      -4.7510
      XYYY       0.0000   YYYY     -14.2531   XXXZ       0.0000
      XXYZ       0.0000   XYYZ       0.0000   YYYZ       0.0000
      XXZZ      -6.4900   XYZZ       0.0000   YYZZ      -6.4900
      XZZZ       0.0000   YZZZ       0.0000   ZZZZ     -23.8384
 -----------------------------------------------------------------
 Total job time:  4.16s(wall), 5.57s(cpu) 
 Thu Aug 11 11:29:11 2022

        *************************************************************
        *                                                           *
        *  Thank you very much for using Q-Chem.  Have a nice day.  *
        *                                                           *
        *************************************************************


