Jobname.Temp
SP        R                             STO-3G              
Number of atoms                            I                2
Charge                                     I                0
Multiplicity                               I                1
Number of electrons                        I                4
Number of alpha electrons                  I                2
Number of beta electrons                   I                2
Atomic numbers                             I   N=           2
           3           1
Current cartesian coordinates              R   N=           6
  0.00000000E+00  0.00000000E+00 -8.50376756E-01  0.00000000E+00  0.00000000E+00
  2.55113027E+00
Nuclear charges                            R   N=           2
  3.00000000E+00  1.00000000E+00
Number of basis functions                  I                6
Number of contracted shells                I                3
Number of primitive shells                 I                9
Highest angular momentum                   I                1
Largest degree of contraction              I                3
Shell types                                I   N=           3
           0          -1           0
Number of primitives per shell             I   N=           3
           3           3           3
Shell to atom map                          I   N=           3
           1           1           2
Primitive exponents                        R   N=           9
  1.61195750E+01  2.93620070E+00  7.94650500E-01  6.36289700E-01  1.47860100E-01
  4.80887000E-02  3.42525091E+00  6.23913730E-01  1.68855400E-01
Contraction coefficients                   R   N=           9
  1.54328970E-01  5.35328141E-01  4.44634541E-01 -9.99672298E-02  3.99512829E-01
  7.00115469E-01  1.54328971E-01  5.35328142E-01  4.44634542E-01
P(S=P) Contraction coefficients            R   N=           9
  0.00000000E+00  0.00000000E+00  0.00000000E+00  1.55916265E-01  6.07683701E-01
  3.91957378E-01  0.00000000E+00  0.00000000E+00  0.00000000E+00
Coordinates of each shell                  R   N=           9
  0.00000000E+00  0.00000000E+00 -8.50376756E-01  0.00000000E+00  0.00000000E+00
 -8.50376756E-01  0.00000000E+00  0.00000000E+00  2.55113027E+00
Overlap Matrix                             R   N=          21
  1.00000000E+00  2.41136651E-01  1.00000000E+00  0.00000000E+00  0.00000000E+00
  1.00000000E+00  0.00000000E+00  0.00000000E+00  0.00000000E+00  1.00000000E+00
 -1.28445611E-18  2.20133198E-17  0.00000000E+00  0.00000000E+00  1.00000000E+00
  4.31985720E-02  3.45860232E-01  0.00000000E+00  0.00000000E+00  4.70554142E-01
  1.00000000E+00
Core Hamiltonian Matrix                    R   N=          21
 -4.70008229E+00 -1.05547128E+00 -1.37440774E+00  0.00000000E+00  0.00000000E+00
 -1.11791797E+00  0.00000000E+00  0.00000000E+00  0.00000000E+00 -1.11791797E+00
 -1.27250485E-02 -1.10667410E-01  0.00000000E+00  0.00000000E+00 -1.20594872E+00
 -1.94597848E-01 -5.76296392E-01  0.00000000E+00  0.00000000E+00 -7.35297387E-01
 -1.34763456E+00
Orbital Coefficients CCMAN2 Alpha          R   N=          36
  9.91371574E-01  3.33460504E-02 -1.02449641E-18  5.86248839E-16 -5.20380145E-03
  9.56465698E-04  1.56978770E-01 -4.71951066E-01  6.00399188E-18  1.41397920E-16
 -3.38914548E-01 -5.63446754E-01 -2.12296920E-01  7.98080812E-01 -1.25989920E-16
  7.27820205E-16 -6.07191058E-01 -1.58291030E-01 -9.23400932E-17  9.09700738E-17
 -1.00000000E+00 -1.04804564E-16 -8.64159789E-17  3.30746354E-17 -1.05404592E-17
 -5.42075940E-16 -2.99453986E-16  1.00000000E+00  3.86096713E-16  2.61031022E-16
  1.09447197E-01 -6.27653479E-01 -1.69033600E-18 -3.71433955E-17 -9.23754580E-01
  1.08580692E+00
Orbital Coefficients CCMAN2 Beta           R   N=          36
  1.56978770E-01 -4.71951066E-01  6.00399188E-18  1.41397920E-16 -3.38914548E-01
 -5.63446754E-01 -2.12296920E-01  7.98080812E-01 -1.25989920E-16  7.27820205E-16
 -6.07191058E-01 -1.58291030E-01 -9.23400932E-17  9.09700738E-17 -1.00000000E+00
 -1.04804564E-16 -8.64159789E-17  3.30746354E-17 -1.05404592E-17 -5.42075940E-16
 -2.99453986E-16  1.00000000E+00  3.86096713E-16  2.61031022E-16  1.09447197E-01
 -6.27653479E-01 -1.69033600E-18 -3.71433955E-17 -9.23754580E-01  1.08580692E+00
  9.91371574E-01  3.33460504E-02 -1.02449641E-18  5.86248839E-16 -5.20380145E-03
  9.56465698E-04
EOMEE transition A Excitation Energies     R   N=           3
  1.20936156E-01  1.71187455E-01  1.71187456E-01
Number of Active Occ                       I                4
Number of Active Vir                       I                8
Alpha Amplitudes                           R   N=           6
  6.53785493E-01  6.53785493E-01 -6.56433043E-01 -6.56433043E-01 -6.56433043E-01
 -6.56433043E-01
Alpha J Indexes                            I   N=           4
           0           2           4           6
Alpha I Indexes                            I   N=           6
           8          28          10          30           9          29
EOMEE transition A Excitation Energies     R   N=           3
  1.01120345E-01  1.55959871E-01  1.55959871E-01
Number of Active Occ                       I                4
Number of Active Vir                       I                8
Alpha Amplitudes                           R   N=           8
 -6.75880323E-01  1.20268840E-01  6.75880323E-01 -1.20268840E-01  6.72675132E-01
 -6.72675132E-01 -6.72675132E-01  6.72675132E-01
Alpha J Indexes                            I   N=           4
           0           4           6           8
Alpha I Indexes                            I   N=           8
           8          11          28          31          10          30
           9          29
Number of independent functions            I                6
Alpha MO coefficients                      R   N=          36
  9.91371574E-01  3.33460504E-02 -1.02449641E-18  5.86248839E-16 -5.20380145E-03
  9.56465698E-04  1.56978770E-01 -4.71951066E-01  6.00399188E-18  1.41397920E-16
 -3.38914548E-01 -5.63446754E-01 -2.12296920E-01  7.98080812E-01 -1.25989920E-16
  7.27820205E-16 -6.07191058E-01 -1.58291030E-01 -9.23400932E-17  9.09700738E-17
 -1.00000000E+00 -1.04804564E-16 -8.64159789E-17  3.30746354E-17 -1.05404592E-17
 -5.42075940E-16 -2.99453986E-16  1.00000000E+00  3.86096713E-16  2.61031022E-16
  1.09447197E-01 -6.27653479E-01 -1.69033600E-18 -3.71433955E-17 -9.23754580E-01
  1.08580692E+00
Alpha Orbital Energies                     R   N=           6
 -2.35445832E+00 -2.67759849E-01  7.60410791E-02  1.63499054E-01  1.63499054E-01
  4.89685128E-01
Total SCF Density                          R   N=          21
  2.02065149E+00 -1.05428055E-01  5.45251722E-01  1.71433082E-16 -8.99421160E-17
  1.26330687E-03  9.43525015E-16 -4.51622257E-17 -7.92186310E-19  1.26330687E-03
 -1.12781428E-01  3.23326550E-01 -5.64357105E-17 -4.99217780E-17  1.93388024E-01
 -1.68403229E-01  4.92193587E-01 -7.98156344E-17 -6.64015556E-17  3.01628959E-01
  6.79250953E-01
Pure Switching                             I                1
Dipole_Data                                R   N=           3
  8.07462079E-16 -1.99644380E-16 -4.57647987E+00
Quadrupole_Data                            R   N=           6
 -5.62340022E+00  5.00800299E-18 -5.62340022E+00  1.23415591E-16  5.13585632E-16
 -4.43255577E+00
Octapole_Data                              R   N=          10
  2.36669500E-15  3.36974802E-16  7.88898332E-16  1.01092441E-15 -3.01471915E+00
 -2.25360135E-18 -3.01471915E+00  6.75788695E-16  4.95130863E-17 -9.02400682E+00
Hexadecapole_Data                          R   N=          15
 -1.42531204E+01  1.32424515E-17 -4.75104014E+00  1.32424515E-17 -1.42531204E+01
  5.80349181E-17  1.76350043E-16  1.93449727E-17  5.29050130E-16 -6.48999156E+00
  5.42827110E-18 -6.48999156E+00  2.72144354E-16  7.97991506E-16 -2.38384421E+01
