                  Welcome to Q-Chem
     A Quantum Leap Into The Future Of Chemistry


 Q-Chem 5.4 (devel), Q-Chem, Inc., Pleasanton, CA (2021)

 E. Epifanovsky,  A. T. B. Gilbert,  Xintian Feng,  Joonho Lee,  Yuezhi Mao,  
 N. Mardirossian,  P. Pokhilko,  A. White,  M. Wormit,  M. P. Coons,  
 A. L. Dempwolff,  Zhengting Gan,  D. Hait,  P. R. Horn,  L. D. Jacobson,  
 I. Kaliman,  J. Kussmann,  A. W. Lange,  Ka Un Lao,  D. S. Levine,  Jie Liu,  
 S. C. McKenzie,  A. F. Morrison,  K. Nanda,  F. Plasser,  D. R. Rehn,  
 M. L. Vidal,  Zhi-Qiang You,  Ying Zhu,  B. Alam,  B. Albrecht,  
 A. Aldossary,  E. Alguire,  J. H. Andersen,  D. Barton,  K. Begam,  A. Behn,  
 Y. A. Bernard,  E. J. Berquist,  H. Burton,  A. Carreras,  K. Carter-Fenk,  
 R. Chakraborty,  A. D. Chien,  K. D. Closser,  V. Cofer-Shabica,  
 S. Dasgupta,  Jia Deng,  M. de Wergifosse,  M. Diedenhofen,  Hainam Do,  
 S. Ehlert,  Po-Tung Fang,  S. Fatehi,  Qingguo Feng,  T. Friedhoff,  
 J. Gayvert,  Qinghui Ge,  G. Gidofalvi,  M. Goldey,  J. Gomes,  
 C. Gonzalez-Espinoza,  S. Gulania,  A. Gunina,  M. W. D. Hanson-Heine,  
 P. H. P. Harbach,  A. W. Hauser,  M. F. Herbst,  M. Hernandez Vera,  
 M. Hodecker,  Z. C. Holden,  S. Houck,  Xunkun Huang,  Kerwin Hui,  
 B. C. Huynh,  M. Ivanov,  Hyunjun Ji,  Hanjie Jiang,  B. Kaduk,  S. Kaehler,  
 K. Khistyaev,  Jaehoon Kim,  P. Klunzinger,  Z. Koczor-Benda,  
 Joong Hoon Koh,  D. Kosenkov,  L. Koulias,  T. Kowalczyk,  C. M. Krauter,  
 K. Kue,  A. Kunitsa,  T. Kus,  A. Landau,  K. V. Lawler,  D. Lefrancois,  
 S. Lehtola,  Rain Li,  Yi-Pei Li,  Jiashu Liang,  M. Liebenthal,  
 Hung-Hsuan Lin,  You-Sheng Lin,  Fenglai Liu,  Kuan-Yu Liu,  
 M. Loipersberger,  A. Luenser,  A. Manjanath,  P. Manohar,  E. Mansoor,  
 S. F. Manzer,  Shan-Ping Mao,  A. V. Marenich,  T. Markovich,  S. Mason,  
 S. A. Maurer,  P. F. McLaughlin,  M. F. S. J. Menger,  J.-M. Mewes,  
 S. A. Mewes,  P. Morgante,  J. W. Mullinax,  K. J. Oosterbaan,  G. Paran,  
 Alexander C. Paul,  Suranjan K. Paul,  F. Pavosevic,  Zheng Pei,  S. Prager,  
 E. I. Proynov,  E. Ramos,  B. Rana,  A. E. Rask,  A. Rettig,  R. M. Richard,  
 F. Rob,  E. Rossomme,  T. Scheele,  M. Scheurer,  M. Schneider,  
 N. Sergueev,  S. M. Sharada,  W. Skomorowski,  D. W. Small,  C. J. Stein,  
 Yu-Chuan Su,  E. J. Sundstrom,  Zhen Tao,  J. Thirman,  T. Tsuchimochi,  
 N. M. Tubman,  S. P. Veccham,  O. Vydrov,  J. Wenzel,  J. Witte,  A. Yamada,  
 Kun Yao,  S. Yeganeh,  S. R. Yost,  A. Zech,  Igor Ying Zhang,  Xing Zhang,  
 Yu Zhang,  D. Zuev,  A. Aspuru-Guzik,  A. T. Bell,  N. A. Besley,  
 K. B. Bravaya,  B. R. Brooks,  D. Casanova,  Jeng-Da Chai,  S. Coriani,  
 C. J. Cramer,  A. E. DePrince, III,  R. A. DiStasio Jr.,  A. Dreuw,  
 B. D. Dunietz,  T. R. Furlani,  W. A. Goddard III,  S. Grimme,  
 S. Hammes-Schiffer,  T. Head-Gordon,  W. J. Hehre,  Chao-Ping Hsu,  
 T.-C. Jagau,  Yousung Jung,  A. Klamt,  Jing Kong,  D. S. Lambrecht,  
 WanZhen Liang,  N. J. Mayhall,  C. W. McCurdy,  J. B. Neaton,  
 C. Ochsenfeld,  J. A. Parkhill,  R. Peverati,  V. A. Rassolov,  Yihan Shao,  
 L. V. Slipchenko,  T. Stauch,  R. P. Steele,  J. E. Subotnik,  
 A. J. W. Thom,  A. Tkatchenko,  D. G. Truhlar,  T. Van Voorhis,  
 T. A. Wesolowski,  K. B. Whaley,  H. L. Woodcock III,  P. M. Zimmerman,  
 S. Faraji,  P. M. W. Gill,  M. Head-Gordon,  J. M. Herbert,  A. I. Krylov

 Additional authors for Version 5.4.1: 
 S. Kotaru,  Shaozhi Li,  Xiangyuan Li,  F. Matz,  A. Molle,  Haisheng Ren,  
 Yingli Su,  Hung-Yi Tsai,  C. Utku,  Fang Wang

 Contributors to earlier versions of Q-Chem not listed above: 
 R. D. Adamson,  B. Austin,  R. Baer,  J. Baker,  G. J. O. Beran,  
 K. Brandhorst,  S. T. Brown,  E. F. C. Byrd,  A. K. Chakraborty,  
 G. K. L. Chan,  Chun-Min Chang,  Yunqing Chen,  C.-L. Cheng,  
 Siu Hung Chien,  D. M. Chipman,  D. L. Crittenden,  H. Dachsel,  
 R. J. Doerksen,  A. D. Dutoi,  R. G. Edgar,  J. Fosso-Tande,  
 L. Fusti-Molnar,  D. Ghosh,  A. Ghysels,  A. Golubeva-Zadorozhnaya,  
 J. Gonthier,  M. S. Gordon,  S. R. Gwaltney,  G. Hawkins,  J. E. Herr,  
 A. Heyden,  S. Hirata,  E. G. Hohenstein,  G. Kedziora,  F. J. Keil,  
 C. Kelley,  Jihan Kim,  R. A. King,  R. Z. Khaliullin,  P. P. Korambath,  
 W. Kurlancheek,  A. Laurent,  A. M. Lee,  M. S. Lee,  S. V. Levchenko,  
 Ching Yeh Lin,  D. Liotard,  E. Livshits,  R. C. Lochan,  I. Lotan,  
 L. A. Martinez-Martinez,  P. E. Maslen,  N. Nair,  D. P. O'Neill,  
 D. Neuhauser,  E. Neuscamman,  C. M. Oana,  R. Olivares-Amaya,  R. Olson,  
 T. M. Perrine,  B. Peters,  P. A. Pieniazek,  A. Prociuk,  Y. M. Rhee,  
 J. Ritchie,  M. A. Rohrdanz,  E. Rosta,  N. J. Russ,  H. F. Schaefer III,  
 M. W. Schmidt,  N. E. Schultz,  S. Sharma,  N. Shenvi,  C. D. Sherrill,  
 A. C. Simmonett,  A. Sodt,  T. Stein,  D. Stuck,  K. S. Thanthiriwatte,  
 V. Vanovschi,  L. Vogt,  Tao Wang,  A. Warshel,  M. A. Watson,  
 C. F. Williams,  Q. Wu,  X. Xu,  Jun Yang,  W. Zhang,  Yan Zhao

 Please cite Q-Chem as follows:
 Y. Shao et al., Mol. Phys. 113, 184-215 (2015)
 DOI: 10.1080/00268976.2014.952696

 Q-Chem 5.4.1 for Intel X86 EM64T Linux

 Parts of Q-Chem use Armadillo 9.900.5 (Nocturnal Misbehaviour).
 http://arma.sourceforge.net/

 Q-Chem begins on Thu Aug 11 11:17:09 2022  

orc23
 Host: 0

     Scratch files written to /scratch/yongbin/qchem8541//
 Processing $rem in /home/users/yongbin/software/yongbin_quantum/config/preferences:
 Processing $rem in /home/users/yongbin/.qchemrc:
 Core orbitals will be frozen

 Checking the input file for inconsistencies... 	...done.

--------------------------------------------------------------
User input:
--------------------------------------------------------------
$comment
Hydrogen molecule
$end

$molecule
0 1
H 0.0 0.0 0.0
H 0.0 0.0 0.3
$end

$rem
   print_qis = true
   BASIS                = 6-31g 
   SYMMETRY             = false
   CC_SYMMETRY          = false
   METHOD               = eom-ccsd
   EE_SINGLETS          = [3]  ! Compute two EOM-EE singlet excited states
   EE_TRIPLETS          = [3]  ! Compute two EOM-EE triplet excited states
   CC_REF_PROP          = true ! Compute ground state properties
   CC_EOM_PROP          = true ! Compute excited state properties
!   CC_OSFNO             = true
   GUI                  = 2
$end
--------------------------------------------------------------
 ----------------------------------------------------------------
             Standard Nuclear Orientation (Angstroms)
    I     Atom           X                Y                Z
 ----------------------------------------------------------------
    1      H       0.0000000000     0.0000000000    -0.1500000000
    2      H       0.0000000000     0.0000000000     0.1500000000
 ----------------------------------------------------------------
 Molecular Point Group                 D*h   NOp =***
 Largest Abelian Subgroup              D2h   NOp =  1
 Nuclear Repulsion Energy =           1.76392404 hartrees
 There are        1 alpha and        1 beta electrons
 Requested basis set is 6-31G
 There are 4 shells and 4 basis functions
 Total memory of 2000 MB is distributed as follows: 
   MEM_STATIC is set to 192 MB
   QALLOC/CCMAN JOB total memory use is  1808 MB
 Warning: actual memory use might exceed 2000 MB

 Total QAlloc Memory Limit   2000 MB
 Mega-Array Size       188 MB
 MEM_STATIC part       192 MB

                       Distance Matrix (Angstroms)
             H (  1)
   H (  2)  0.300000

 A cutoff of  1.0D-14 yielded     10 shell pairs
 There are        10 function pairs
 Smallest overlap matrix eigenvalue = 1.91E-02

 Scale SEOQF with 1.000000e+00/1.000000e+00/1.000000e+00

 Standard Electronic Orientation quadrupole field applied
 Guess from superposition of atomic densities
 Warning:  Energy on first SCF cycle will be non-variational
 SAD guess density has 2.000000 electrons

 -----------------------------------------------------------------------
  General SCF calculation program by
  Eric Jon Sundstrom, Paul Horn, Yuezhi Mao, Dmitri Zuev, Alec White,
  David Stuck, Shaama M.S., Shane Yost, Joonho Lee, David Small,
  Daniel Levine, Susi Lehtola, Hugh Burton, Evgeny Epifanovsky,
  Bang C. Huynh
 -----------------------------------------------------------------------
 Hartree-Fock
 using 12 threads for integral computing
 -------------------------------------------------------
 OpenMP Integral computing Module                
 Release: version 1.0, May 2013, Q-Chem Inc. Pittsburgh 
 -------------------------------------------------------
 A restricted SCF calculation will be
 performed using DIIS
 SCF converges when DIIS error is below 1.0e-08
 ---------------------------------------
  Cycle       Energy         DIIS error
 ---------------------------------------
    1      -0.3481503885      2.36e-01  
    2      -0.6418699646      3.10e-02  
    3      -0.6451518140      9.18e-04  
    4      -0.6451547337      4.59e-06  
    5      -0.6451547338      2.31e-08  
    6      -0.6451547338      1.28e-10  Convergence criterion met
 ---------------------------------------
 SCF time:   CPU 0.58s  wall 0.00s 
 SCF   energy in the final basis set =       -0.6451547338
 Total energy in the final basis set =       -0.6451547338


 ------------------------------------------------------------------------------

   CCMAN2: suite of methods based on coupled cluster
           and equation of motion theories.

   Components:
   * libvmm-1.3-trunk
     by Evgeny Epifanovsky, Ilya Kaliman.
   * libtensor-2.5-trunk
     by Evgeny Epifanovsky, Michael Wormit, Dmitry Zuev, Sam Manzer, 
        Ilya Kaliman.
   * libcc-2.5-trunk
     by Evgeny Epifanovsky, Arik Landau, Tomasz Kus, Kirill Khistyaev, 
        Dmitry Zuev, Prashant Manohar, Xintian Feng, Anna Krylov, 
        Matthew Goldey, Alec White, Thomas Jagau, Kaushik Nanda, 
        Anastasia Gunina, Alexander Kunitsa, Joonho Lee.

   CCMAN original authors:
   Anna I. Krylov, C. David Sherrill, Steven R. Gwaltney,
   Edward F. C. Byrd (2000)
   Sergey V. Levchenko, Lyudmila V. Slipchenko, Tao Wang,
   Ana-Maria C. Cristian (2003)
   Piotr A. Pieniazek, C. Melania Oana, Evgeny Epifanovsky (2007)
   Prashant Manohar (2009)

 ------------------------------------------------------------------------------


 Allocating and initializing 1808MB of RAM...
 Calculation will run on 12 cores.


 Occupation and symmetry of molecular orbitals

 Point group: C1 (1 irreducible representation).

                           A     All 
 -------------------------------------
 All molecular orbitals:
  - Alpha                  4     4   
  - Beta                   4     4   
 -------------------------------------
 Alpha orbitals:
  - Frozen occupied        0     0   
  - Active occupied        1     1   
  - Active virtual         3     3   
  - Frozen virtual         0     0   
 -------------------------------------
 Beta orbitals:
  - Frozen occupied        0     0   
  - Active occupied        1     1   
  - Active virtual         3     3   
  - Frozen virtual         0     0   
 -------------------------------------

 Import integrals:   CPU 0.00 s  wall 0.00 s

 Import integrals:   CPU 0.08 s  wall 0.04 s

 Run QIS:   CPU 0.00 s  wall 0.01 s

 MP2 amplitudes:   CPU 0.00 s  wall 0.00 s

Running a double precision version
           CCSD T amplitudes will be solved using DIIS.

           Start     Size      MaxIter   EConv     TConv     
           3         7         100       1.00e-06  1.00e-04  
 ------------------------------------------------------------------------------
           Energy (a.u.)   Ediff      Tdiff       Comment
 ------------------------------------------------------------------------------
            -0.65694006                           
     1      -0.65964463   2.70e-03   8.49e-02     
     2      -0.66029009   6.45e-04   1.98e-02     
     3      -0.66045154   1.61e-04   5.03e-03     
     4      -0.66051004   5.85e-05   1.86e-03     Switched to DIIS steps.
     5      -0.66051022   1.77e-07   1.10e-04     
     6      -0.66051018   3.21e-08   7.89e-06     
 ------------------------------------------------------------------------------
            -0.66051018                           CCSD T converged.

End of double precision
 SCF energy                 = -0.64515473
 MP2 energy                 = -0.65694006
 CCSD correlation energy    = -0.01535545
 CCSD total energy          = -0.66051018

 CCSD  T1^2 = 0.0000  T2^2 = 0.0054  Leading amplitudes:

 Amplitude    Orbitals with energies
 -0.0039491773       1 (A) A                   ->    3 (A) A                    
                    -0.7737                          0.5990                     
 -0.0039491773       1 (A) B                   ->    3 (A) B                    
                    -0.7737                          0.5990                     

 Amplitude    Orbitals with energies
 -0.0551553260       1 (A) A       1 (A) B     ->    3 (A) A       3 (A) B      
                    -0.7737       -0.7737            0.5990        0.5990       
  0.0551553260       1 (A) A       1 (A) B     ->    3 (A) B       3 (A) A      
                    -0.7737       -0.7737            0.5990        0.5990       
  0.0551553260       1 (A) B       1 (A) A     ->    3 (A) A       3 (A) B      
                    -0.7737       -0.7737            0.5990        0.5990       
 -0.0551553260       1 (A) B       1 (A) A     ->    3 (A) B       3 (A) A      
                    -0.7737       -0.7737            0.5990        0.5990       

 Computing CCSD intermediates for later calculations in double precision
 Finished.

Running a double precision version
           CCSD Lambda amplitudes will be solved using DIIS.
           Start     Size      MaxIter   EConv     LConv     
           3         7         100       1.00e-06  1.00e-04  
 ------------------------------------------------------------------------------
            Enorm      Ldiff       Comment
 ------------------------------------------------------------------------------
     1     6.43e-04   6.07e-04     
     2     1.75e-04   1.61e-04     
     3     5.21e-05   4.49e-05     
     4     3.29e-06   1.85e-05     Switched to DIIS steps.
     5     2.17e-07   4.40e-07     
 ------------------------------------------------------------------------------
                                   CCSD Lambda converged.

 Computing density matrices in double precision...
 Computing density matrices... Done.
 Reference state properties
 Dipole moment (a.u.): 0.000000 (X -0.000000, Y -0.000000, Z 0.000000)
 R-squared (a.u.): 3.129675 (XX 1.009038, YY 1.009038, ZZ 1.111598)
 Gauge origin (a.u.): (0.000000, 0.000000, 0.000000)
 Angular momentum (a.u.) against gauge origin: 
 (X 0.000000i, Y 0.000000i, Z 0.000000i)
 Traces of the OPDMs: Tr(AA) 1.000000, Tr(BB) 1.000000
 Density matrix was written to a file for further analysis.

 CCSD calculation:   CPU 0.85 s  wall 0.47 s

        Solving for EOMEE-CCSD A singlet states.

Running a double precision version
        EOMEE-CCSD/MP2 right amplitudes will be solved using Davidson.
        Amplitudes will be solved using standard  algorithm.
     Hard-coded thresholds: 
     LinDepThresh=1.00e-15  NormThresh=1.00e-06  ReorthogonThresh=1.00e-02

      Roots     MaxVec    MaxIter   Precond   Conv      Shift    
      3         120       60        1         1.00e-05  0.00e+00  
 ------------------------------------------------------------------------------
      Iter ConvRoots NVecs ResNorm Current eigenvalues (eV)
 ------------------------------------------------------------------------------
      0    0      3     3.97e-02   21.2439   28.7218   75.7785   
      1    2      6     8.66e-03   20.0796*  28.0774   53.9408*  
      2    2      7     6.00e-05   20.0796*  27.7720   53.9408*  
      3    3      8     1.20e-07   20.0796*  27.7700*  53.9408*  

     Davidson procedure converged

 EOMEE transition 1/A
 Total energy = 0.07740241 a.u.  Excitation energy = 20.07962296 eV.
 R0^2 = 0.0000  R1^2 = 0.9655  R2^2 = 0.0345  Res^2 = 8.86e-31
 Conv-d = yes

 Amplitude    Transitions between orbitals
 -0.6948005927       1 (A) A                   ->    2 (A) A                    
 -0.6948005927       1 (A) B                   ->    2 (A) B                    
 -0.0004556355       1 (A) A                   ->    4 (A) A                    
 -0.0004556355       1 (A) B                   ->    4 (A) B                    
 -0.1313409973       1 (A) A       1 (A) B     ->    2 (A) A       3 (A) B      
 -0.1313409973       1 (A) A       1 (A) B     ->    3 (A) A       2 (A) B      
  0.1313409973       1 (A) A       1 (A) B     ->    3 (A) B       2 (A) A      
  0.1313409973       1 (A) A       1 (A) B     ->    2 (A) B       3 (A) A      
  0.1313409973       1 (A) B       1 (A) A     ->    2 (A) A       3 (A) B      
  0.1313409973       1 (A) B       1 (A) A     ->    3 (A) A       2 (A) B      
 -0.1313409973       1 (A) B       1 (A) A     ->    2 (A) B       3 (A) A      
 -0.1313409973       1 (A) B       1 (A) A     ->    3 (A) B       2 (A) A      
  0.0012129328       1 (A) A       1 (A) B     ->    3 (A) A       4 (A) B      
  0.0012129328       1 (A) A       1 (A) B     ->    4 (A) A       3 (A) B      
 -0.0012129328       1 (A) A       1 (A) B     ->    4 (A) B       3 (A) A      
 -0.0012129328       1 (A) A       1 (A) B     ->    3 (A) B       4 (A) A      
 -0.0012129328       1 (A) B       1 (A) A     ->    3 (A) A       4 (A) B      
 -0.0012129328       1 (A) B       1 (A) A     ->    4 (A) A       3 (A) B      
  0.0012129328       1 (A) B       1 (A) A     ->    3 (A) B       4 (A) A      
  0.0012129328       1 (A) B       1 (A) A     ->    4 (A) B       3 (A) A      

              Summary of significant orbitals:

               Number  Type             Irrep      Energy
               1       Occ  Alpha       1 (A)     -0.7737
               1       Occ  Beta        1 (A)     -0.7737
               2       Vir  Alpha       2 (A)      0.3354
               3       Vir  Alpha       3 (A)      0.5990
               4       Vir  Alpha       4 (A)      2.5104
               2       Vir  Beta        2 (A)      0.3354
               3       Vir  Beta        3 (A)      0.5990
               4       Vir  Beta        4 (A)      2.5104


 EOMEE transition 2/A
 Total energy = 0.36001887 a.u.  Excitation energy = 27.77000790 eV.
 R0^2 = 0.0002  R1^2 = 0.9689  R2^2 = 0.0311  Res^2 = 3.60e-07
 Conv-d = yes

 Amplitude    Transitions between orbitals
 -0.6960185967       1 (A) A                   ->    3 (A) A                    
 -0.6960185967       1 (A) B                   ->    3 (A) B                    
 -0.1663022257       1 (A) A       1 (A) B     ->    3 (A) A       3 (A) B      
  0.1663022257       1 (A) A       1 (A) B     ->    3 (A) B       3 (A) A      
  0.1663022257       1 (A) B       1 (A) A     ->    3 (A) A       3 (A) B      
 -0.1663022257       1 (A) B       1 (A) A     ->    3 (A) B       3 (A) A      
 -0.0491938619       1 (A) A       1 (A) B     ->    2 (A) A       2 (A) B      
  0.0491938619       1 (A) A       1 (A) B     ->    2 (A) B       2 (A) A      
  0.0491938619       1 (A) B       1 (A) A     ->    2 (A) A       2 (A) B      
 -0.0491938619       1 (A) B       1 (A) A     ->    2 (A) B       2 (A) A      
  0.0322098304       1 (A) A       1 (A) B     ->    4 (A) A       4 (A) B      
 -0.0322098304       1 (A) A       1 (A) B     ->    4 (A) B       4 (A) A      
 -0.0322098304       1 (A) B       1 (A) A     ->    4 (A) A       4 (A) B      
  0.0322098304       1 (A) B       1 (A) A     ->    4 (A) B       4 (A) A      
  0.0010692258       1 (A) A       1 (A) B     ->    2 (A) A       4 (A) B      
  0.0010692258       1 (A) A       1 (A) B     ->    4 (A) A       2 (A) B      
 -0.0010692258       1 (A) A       1 (A) B     ->    4 (A) B       2 (A) A      
 -0.0010692258       1 (A) A       1 (A) B     ->    2 (A) B       4 (A) A      
 -0.0010692258       1 (A) B       1 (A) A     ->    2 (A) A       4 (A) B      
 -0.0010692258       1 (A) B       1 (A) A     ->    4 (A) A       2 (A) B      
  0.0010692258       1 (A) B       1 (A) A     ->    2 (A) B       4 (A) A      
  0.0010692258       1 (A) B       1 (A) A     ->    4 (A) B       2 (A) A      

              Summary of significant orbitals:

               Number  Type             Irrep      Energy
               1       Occ  Alpha       1 (A)     -0.7737
               1       Occ  Beta        1 (A)     -0.7737
               2       Vir  Alpha       2 (A)      0.3354
               3       Vir  Alpha       3 (A)      0.5990
               4       Vir  Alpha       4 (A)      2.5104
               2       Vir  Beta        2 (A)      0.3354
               3       Vir  Beta        3 (A)      0.5990
               4       Vir  Beta        4 (A)      2.5104


 EOMEE transition 3/A
 Total energy = 1.32177903 a.u.  Excitation energy = 53.94083273 eV.
 R0^2 = 0.0000  R1^2 = 0.0439  R2^2 = 0.9561  Res^2 = 3.50e-30
 Conv-d = yes

 Amplitude    Transitions between orbitals
 -0.1274626209       1 (A) A                   ->    2 (A) A                    
 -0.1274626209       1 (A) B                   ->    2 (A) B                    
  0.0756103551       1 (A) A                   ->    4 (A) A                    
  0.0756103551       1 (A) B                   ->    4 (A) B                    
  0.6871761802       1 (A) A       1 (A) B     ->    2 (A) A       3 (A) B      
  0.6871761802       1 (A) A       1 (A) B     ->    3 (A) A       2 (A) B      
 -0.6871761802       1 (A) A       1 (A) B     ->    3 (A) B       2 (A) A      
 -0.6871761802       1 (A) A       1 (A) B     ->    2 (A) B       3 (A) A      
 -0.6871761802       1 (A) B       1 (A) A     ->    2 (A) A       3 (A) B      
 -0.6871761802       1 (A) B       1 (A) A     ->    3 (A) A       2 (A) B      
  0.6871761802       1 (A) B       1 (A) A     ->    2 (A) B       3 (A) A      
  0.6871761802       1 (A) B       1 (A) A     ->    3 (A) B       2 (A) A      
 -0.0763233376       1 (A) A       1 (A) B     ->    3 (A) A       4 (A) B      
 -0.0763233376       1 (A) A       1 (A) B     ->    4 (A) A       3 (A) B      
  0.0763233376       1 (A) A       1 (A) B     ->    4 (A) B       3 (A) A      
  0.0763233376       1 (A) A       1 (A) B     ->    3 (A) B       4 (A) A      
  0.0763233376       1 (A) B       1 (A) A     ->    3 (A) A       4 (A) B      
  0.0763233376       1 (A) B       1 (A) A     ->    4 (A) A       3 (A) B      
 -0.0763233376       1 (A) B       1 (A) A     ->    3 (A) B       4 (A) A      
 -0.0763233376       1 (A) B       1 (A) A     ->    4 (A) B       3 (A) A      

              Summary of significant orbitals:

               Number  Type             Irrep      Energy
               1       Occ  Alpha       1 (A)     -0.7737
               1       Occ  Beta        1 (A)     -0.7737
               2       Vir  Alpha       2 (A)      0.3354
               3       Vir  Alpha       3 (A)      0.5990
               4       Vir  Alpha       4 (A)      2.5104
               2       Vir  Beta        2 (A)      0.3354
               3       Vir  Beta        3 (A)      0.5990
               4       Vir  Beta        4 (A)      2.5104


 EEs and amplitudes of EOMEE has be exported to fchk file
Running a double precision version
      EOM-CCSD/MP2 left amplitudes will be solved using Davidson.
        Amplitudes will be solved using MOM  algorithm.
     Hard-coded thresholds: 
     LinDepThresh=1.00e-15  NormThresh=1.00e-06  ReorthogonThresh=1.00e-02

      Roots     MaxVec    MaxIter   Precond   Conv      Shift    
      3         120       60        1         1.00e-05  0.00e+00  
 ------------------------------------------------------------------------------
      Iter ConvRoots NVecs ResNorm Current eigenvalues (eV)
 ------------------------------------------------------------------------------
      0    2      3     1.65e-05   20.0796*  27.7700   53.9408*  
      1    2      4     8.98e-06   20.0796*  27.7700   53.9408*  
      2    3      5     7.02e-07   20.0796*  27.7700*  53.9408*  

     Davidson procedure converged

 Excited state properties for  EOMEE-CCSD transition 1/A
 Dipole moment (a.u.): 0.000000 (X -0.000000, Y -0.000000, Z 0.000000)
 R-squared (a.u.): 8.721853 (XX 1.857074, YY 1.857074, ZZ 5.007704)
 Gauge origin (a.u.): (0.000000, 0.000000, 0.000000)
 Angular momentum (a.u.) against gauge origin: 
 (X 0.000000i, Y 0.000000i, Z 0.000000i)
 Traces of the OPDMs: Tr(AA) 1.000000, Tr(BB) 1.000000

 Excited state properties for  EOMEE-CCSD transition 2/A
 Dipole moment (a.u.): 0.000000 (X -0.000000, Y -0.000000, Z 0.000000)
 R-squared (a.u.): 6.622262 (XX 2.180379, YY 2.180379, ZZ 2.261503)
 Gauge origin (a.u.): (0.000000, 0.000000, 0.000000)
 Angular momentum (a.u.) against gauge origin: 
 (X 0.000000i, Y 0.000000i, Z 0.000000i)
 Traces of the OPDMs: Tr(AA) 1.000000, Tr(BB) 1.000000

 Excited state properties for  EOMEE-CCSD transition 3/A
 Dipole moment (a.u.): 0.000000 (X -0.000000, Y -0.000000, Z 0.000000)
 R-squared (a.u.): 13.242711 (XX 3.479206, YY 3.479206, ZZ 6.284298)
 Gauge origin (a.u.): (0.000000, 0.000000, 0.000000)
 Angular momentum (a.u.) against gauge origin: 
 (X 0.000000i, Y 0.000000i, Z 0.000000i)
 Traces of the OPDMs: Tr(AA) 1.000000, Tr(BB) 1.000000

        Solving for EOMEE-CCSD A triplet states.

Running a double precision version
        EOMEE-CCSD/MP2 right amplitudes will be solved using Davidson.
        Amplitudes will be solved using standard  algorithm.
     Hard-coded thresholds: 
     LinDepThresh=1.00e-15  NormThresh=1.00e-06  ReorthogonThresh=1.00e-02

      Roots     MaxVec    MaxIter   Precond   Conv      Shift    
      3         120       60        1         1.00e-05  0.00e+00  
 ------------------------------------------------------------------------------
      Iter ConvRoots NVecs ResNorm Current eigenvalues (eV)
 ------------------------------------------------------------------------------
      0    0      3     1.31e-02   18.8868   22.4954   66.4979   
      1    3      6     1.82e-30   18.2974*  22.4688*  50.6161*  

     Davidson procedure converged

 EOMEE transition 1/A
 Total energy = 0.01190571 a.u.  Excitation energy = 18.29736693 eV.
 R0^2 = 0.0000  R1^2 = 0.9822  R2^2 = 0.0178  Res^2 = 1.93e-30
 Conv-d = yes

 Amplitude    Transitions between orbitals
 -0.6988335947       1 (A) A                   ->    2 (A) A                    
  0.6988335947       1 (A) B                   ->    2 (A) B                    
  0.0520606772       1 (A) A                   ->    4 (A) A                    
 -0.0520606772       1 (A) B                   ->    4 (A) B                    
 -0.0938904144       1 (A) A       1 (A) B     ->    2 (A) A       3 (A) B      
  0.0938904144       1 (A) A       1 (A) B     ->    3 (A) A       2 (A) B      
  0.0938904144       1 (A) A       1 (A) B     ->    3 (A) B       2 (A) A      
 -0.0938904144       1 (A) A       1 (A) B     ->    2 (A) B       3 (A) A      
  0.0938904144       1 (A) B       1 (A) A     ->    2 (A) A       3 (A) B      
 -0.0938904144       1 (A) B       1 (A) A     ->    3 (A) A       2 (A) B      
  0.0938904144       1 (A) B       1 (A) A     ->    2 (A) B       3 (A) A      
 -0.0938904144       1 (A) B       1 (A) A     ->    3 (A) B       2 (A) A      
  0.0102899393       1 (A) A       1 (A) B     ->    3 (A) A       4 (A) B      
 -0.0102899393       1 (A) A       1 (A) B     ->    4 (A) A       3 (A) B      
 -0.0102899393       1 (A) A       1 (A) B     ->    4 (A) B       3 (A) A      
  0.0102899393       1 (A) A       1 (A) B     ->    3 (A) B       4 (A) A      
 -0.0102899393       1 (A) B       1 (A) A     ->    3 (A) A       4 (A) B      
  0.0102899393       1 (A) B       1 (A) A     ->    4 (A) A       3 (A) B      
 -0.0102899393       1 (A) B       1 (A) A     ->    3 (A) B       4 (A) A      
  0.0102899393       1 (A) B       1 (A) A     ->    4 (A) B       3 (A) A      

              Summary of significant orbitals:

               Number  Type             Irrep      Energy
               1       Occ  Alpha       1 (A)     -0.7737
               1       Occ  Beta        1 (A)     -0.7737
               2       Vir  Alpha       2 (A)      0.3354
               3       Vir  Alpha       3 (A)      0.5990
               4       Vir  Alpha       4 (A)      2.5104
               2       Vir  Beta        2 (A)      0.3354
               3       Vir  Beta        3 (A)      0.5990
               4       Vir  Beta        4 (A)      2.5104


 EOMEE transition 2/A
 Total energy = 0.16520166 a.u.  Excitation energy = 22.46876194 eV.
 R0^2 = 0.0000  R1^2 = 0.9996  R2^2 = 0.0004  Res^2 = 2.28e-31
 Conv-d = yes

 Amplitude    Transitions between orbitals
 -0.7069669932       1 (A) A                   ->    3 (A) A                    
  0.7069669932       1 (A) B                   ->    3 (A) B                    
  0.0140595364       1 (A) A       1 (A) B     ->    2 (A) A       4 (A) B      
 -0.0140595364       1 (A) A       1 (A) B     ->    4 (A) A       2 (A) B      
 -0.0140595364       1 (A) A       1 (A) B     ->    4 (A) B       2 (A) A      
  0.0140595364       1 (A) A       1 (A) B     ->    2 (A) B       4 (A) A      
 -0.0140595364       1 (A) B       1 (A) A     ->    2 (A) A       4 (A) B      
  0.0140595364       1 (A) B       1 (A) A     ->    4 (A) A       2 (A) B      
 -0.0140595364       1 (A) B       1 (A) A     ->    2 (A) B       4 (A) A      
  0.0140595364       1 (A) B       1 (A) A     ->    4 (A) B       2 (A) A      

              Summary of significant orbitals:

               Number  Type             Irrep      Energy
               1       Occ  Alpha       1 (A)     -0.7737
               1       Occ  Beta        1 (A)     -0.7737
               2       Vir  Alpha       2 (A)      0.3354
               3       Vir  Alpha       3 (A)      0.5990
               4       Vir  Alpha       4 (A)      2.5104
               2       Vir  Beta        2 (A)      0.3354
               3       Vir  Beta        3 (A)      0.5990
               4       Vir  Beta        4 (A)      2.5104


 EOMEE transition 3/A
 Total energy = 1.19959693 a.u.  Excitation energy = 50.61608875 eV.
 R0^2 = 0.0000  R1^2 = 0.0175  R2^2 = 0.9825  Res^2 = 3.29e-30
 Conv-d = yes

 Amplitude    Transitions between orbitals
 -0.0878846099       1 (A) A                   ->    2 (A) A                    
  0.0878846099       1 (A) B                   ->    2 (A) B                    
  0.0317697284       1 (A) A                   ->    4 (A) A                    
 -0.0317697284       1 (A) B                   ->    4 (A) B                    
  0.6984745285       1 (A) A       1 (A) B     ->    2 (A) A       3 (A) B      
 -0.6984745285       1 (A) A       1 (A) B     ->    3 (A) A       2 (A) B      
 -0.6984745285       1 (A) A       1 (A) B     ->    3 (A) B       2 (A) A      
  0.6984745285       1 (A) A       1 (A) B     ->    2 (A) B       3 (A) A      
 -0.6984745285       1 (A) B       1 (A) A     ->    2 (A) A       3 (A) B      
  0.6984745285       1 (A) B       1 (A) A     ->    3 (A) A       2 (A) B      
 -0.6984745285       1 (A) B       1 (A) A     ->    2 (A) B       3 (A) A      
  0.6984745285       1 (A) B       1 (A) A     ->    3 (A) B       2 (A) A      
  0.0583122012       1 (A) A       1 (A) B     ->    3 (A) A       4 (A) B      
 -0.0583122012       1 (A) A       1 (A) B     ->    4 (A) A       3 (A) B      
 -0.0583122012       1 (A) A       1 (A) B     ->    4 (A) B       3 (A) A      
  0.0583122012       1 (A) A       1 (A) B     ->    3 (A) B       4 (A) A      
 -0.0583122012       1 (A) B       1 (A) A     ->    3 (A) A       4 (A) B      
  0.0583122012       1 (A) B       1 (A) A     ->    4 (A) A       3 (A) B      
 -0.0583122012       1 (A) B       1 (A) A     ->    3 (A) B       4 (A) A      
  0.0583122012       1 (A) B       1 (A) A     ->    4 (A) B       3 (A) A      

              Summary of significant orbitals:

               Number  Type             Irrep      Energy
               1       Occ  Alpha       1 (A)     -0.7737
               1       Occ  Beta        1 (A)     -0.7737
               2       Vir  Alpha       2 (A)      0.3354
               3       Vir  Alpha       3 (A)      0.5990
               4       Vir  Alpha       4 (A)      2.5104
               2       Vir  Beta        2 (A)      0.3354
               3       Vir  Beta        3 (A)      0.5990
               4       Vir  Beta        4 (A)      2.5104


 EEs and amplitudes of EOMEE has be exported to fchk file
Running a double precision version
      EOM-CCSD/MP2 left amplitudes will be solved using Davidson.
        Amplitudes will be solved using MOM  algorithm.
     Hard-coded thresholds: 
     LinDepThresh=1.00e-15  NormThresh=1.00e-06  ReorthogonThresh=1.00e-02

      Roots     MaxVec    MaxIter   Precond   Conv      Shift    
      3         120       60        1         1.00e-05  0.00e+00  
 ------------------------------------------------------------------------------
      Iter ConvRoots NVecs ResNorm Current eigenvalues (eV)
 ------------------------------------------------------------------------------
      0    3      3     3.26e-09   18.2974*  22.4688*  50.6161*  

     Davidson procedure converged

 Excited state properties for  EOMEE-CCSD transition 1/A
 Dipole moment (a.u.): 0.000000 (X -0.000000, Y -0.000000, Z 0.000000)
 R-squared (a.u.): 8.430344 (XX 1.814543, YY 1.814543, ZZ 4.801258)
 Gauge origin (a.u.): (0.000000, 0.000000, 0.000000)
 Angular momentum (a.u.) against gauge origin: 
 (X 0.000000i, Y 0.000000i, Z 0.000000i)
 Traces of the OPDMs: Tr(AA) 1.000000, Tr(BB) 1.000000

 Excited state properties for  EOMEE-CCSD transition 2/A
 Dipole moment (a.u.): 0.000000 (X -0.000000, Y -0.000000, Z 0.000000)
 R-squared (a.u.): 7.387191 (XX 2.439688, YY 2.439688, ZZ 2.507816)
 Gauge origin (a.u.): (0.000000, 0.000000, 0.000000)
 Angular momentum (a.u.) against gauge origin: 
 (X 0.000000i, Y 0.000000i, Z 0.000000i)
 Traces of the OPDMs: Tr(AA) 1.000000, Tr(BB) 1.000000

 Excited state properties for  EOMEE-CCSD transition 3/A
 Dipole moment (a.u.): 0.000000 (X -0.000000, Y -0.000000, Z 0.000000)
 R-squared (a.u.): 13.413413 (XX 3.499678, YY 3.499678, ZZ 6.414058)
 Gauge origin (a.u.): (0.000000, 0.000000, 0.000000)
 Angular momentum (a.u.) against gauge origin: 
 (X 0.000000i, Y 0.000000i, Z 0.000000i)
 Traces of the OPDMs: Tr(AA) 1.000000, Tr(BB) 1.000000

 EOMEE-CCSD calculation:   CPU 1.54 s  wall 1.16 s

 Total ccman2 time:   CPU 2.60 s  wall 1.77 s


 --------------------------------------------------------------

                    Orbital Energies (a.u.)
 --------------------------------------------------------------

 Alpha MOs
 -- Occupied --
 -0.7737
 -- Virtual --
  0.3354   0.5990   2.5104
 --------------------------------------------------------------

          Ground-State Mulliken Net Atomic Charges

     Atom                 Charge (a.u.)
  ----------------------------------------
      1 H                     0.000000
      2 H                    -0.000000
  ----------------------------------------
  Sum of atomic charges =     0.000000

 -----------------------------------------------------------------
                    Cartesian Multipole Moments
 -----------------------------------------------------------------
    Charge (ESU x 10^10)
                -0.0000
    Dipole Moment (Debye)
         X       0.0000      Y       0.0000      Z      -0.0000
       Tot       0.0000
    Quadrupole Moments (Debye-Ang)
        XX      -1.3572     XY       0.0000     YY      -1.3572
        XZ       0.0000     YZ       0.0000     ZZ      -1.2790
    Octopole Moments (Debye-Ang^2)
       XXX       0.0000    XXY       0.0000    XYY       0.0000
       YYY       0.0000    XXZ      -0.0000    XYZ       0.0000
       YYZ      -0.0000    XZZ       0.0000    YZZ       0.0000
       ZZZ      -0.0000
    Hexadecapole Moments (Debye-Ang^3)
      XXXX      -0.9020   XXXY       0.0000   XXYY      -0.3007
      XYYY       0.0000   YYYY      -0.9020   XXXZ       0.0000
      XXYZ       0.0000   XYYZ       0.0000   YYYZ       0.0000
      XXZZ      -0.3194   XYZZ       0.0000   YYZZ      -0.3194
      XZZZ       0.0000   YZZZ       0.0000   ZZZZ      -1.0124
 -----------------------------------------------------------------
 Total job time:  3.01s(wall), 3.96s(cpu) 
 Thu Aug 11 11:17:12 2022

        *************************************************************
        *                                                           *
        *  Thank you very much for using Q-Chem.  Have a nice day.  *
        *                                                           *
        *************************************************************


