Jobname.Temp
SP        R                             6-31G               
Number of atoms                            I                2
Charge                                     I                0
Multiplicity                               I                1
Number of electrons                        I                2
Number of alpha electrons                  I                1
Number of beta electrons                   I                1
Atomic numbers                             I   N=           2
           1           1
Current cartesian coordinates              R   N=           6
  0.00000000E+00  0.00000000E+00 -2.83458919E-01  0.00000000E+00  0.00000000E+00
  2.83458919E-01
Nuclear charges                            R   N=           2
  1.00000000E+00  1.00000000E+00
Number of basis functions                  I                4
Number of contracted shells                I                4
Number of primitive shells                 I                8
Highest angular momentum                   I                0
Largest degree of contraction              I                3
Shell types                                I   N=           4
           0           0           0           0
Number of primitives per shell             I   N=           4
           3           1           3           1
Shell to atom map                          I   N=           4
           1           1           2           2
Primitive exponents                        R   N=           8
  1.87311370E+01  2.82539370E+00  6.40121700E-01  1.61277800E-01  1.87311370E+01
  2.82539370E+00  6.40121700E-01  1.61277800E-01
Contraction coefficients                   R   N=           8
  3.34945995E-02  2.34726947E-01  8.13757318E-01  1.00000000E+00  3.34945995E-02
  2.34726947E-01  8.13757318E-01  1.00000000E+00
Coordinates of each shell                  R   N=          12
  0.00000000E+00  0.00000000E+00 -2.83458919E-01  0.00000000E+00  0.00000000E+00
 -2.83458919E-01  0.00000000E+00  0.00000000E+00  2.83458919E-01  0.00000000E+00
  0.00000000E+00  2.83458919E-01
Overlap Matrix                             R   N=          10
  1.00000000E+00  6.58292049E-01  1.00000000E+00  8.66898830E-01  6.31047902E-01
  1.00000000E+00  6.31047902E-01  9.74415956E-01  6.58292049E-01  1.00000000E+00
Core Hamiltonian Matrix                    R   N=          10
 -1.52793826E+00 -1.13544324E+00 -1.01831294E+00 -1.58738530E+00 -1.11087226E+00
 -1.52793826E+00 -1.11087226E+00 -1.00655113E+00 -1.13544324E+00 -1.01831294E+00
Orbital Coefficients CCMAN2 Alpha          R   N=          16
 -4.02508696E-01 -1.48415703E-01 -4.02508696E-01 -1.48415703E-01  3.97580938E-02
  4.37772997E+00 -3.97580938E-02 -4.37772997E+00 -5.70810950E-01  6.62756256E-01
 -5.70810950E-01  6.62756256E-01 -2.19134473E+00  2.41373163E+00  2.19134473E+00
 -2.41373163E+00
Orbital Coefficients CCMAN2 Beta           R   N=          16
  3.97580938E-02  4.37772997E+00 -3.97580938E-02 -4.37772997E+00 -5.70810950E-01
  6.62756256E-01 -5.70810950E-01  6.62756256E-01 -2.19134473E+00  2.41373163E+00
  2.19134473E+00 -2.41373163E+00 -4.02508696E-01 -1.48415703E-01 -4.02508696E-01
 -1.48415703E-01
EOMEE transition A Excitation Energies     R   N=           3
  7.37912597E-01  1.02052906E+00  1.98228921E+00
Number of Active Occ                       I                2
Number of Active Vir                       I                6
Alpha Amplitudes                           R   N=           6
 -6.94800593E-01 -6.94800593E-01 -6.96018597E-01 -6.96018597E-01 -1.27462621E-01
 -1.27462621E-01
Alpha J Indexes                            I   N=           4
           0           2           4           6
Alpha I Indexes                            I   N=           6
           0           9           1          10           0           9
EOMEE transition A Excitation Energies     R   N=           3
  6.72415890E-01  8.25711843E-01  1.86010711E+00
Number of Active Occ                       I                2
Number of Active Vir                       I                6
Alpha Amplitudes                           R   N=           4
 -6.98833595E-01  6.98833595E-01 -7.06966993E-01  7.06966993E-01
Alpha J Indexes                            I   N=           4
           0           2           4           4
Alpha I Indexes                            I   N=           4
           0           9           1          10
Number of independent functions            I                4
Alpha MO coefficients                      R   N=          16
 -4.02508696E-01 -1.48415703E-01 -4.02508696E-01 -1.48415703E-01  3.97580938E-02
  4.37772997E+00 -3.97580938E-02 -4.37772997E+00 -5.70810950E-01  6.62756256E-01
 -5.70810950E-01  6.62756256E-01 -2.19134473E+00  2.41373163E+00  2.19134473E+00
 -2.41373163E+00
Alpha Orbital Energies                     R   N=           4
 -7.73660047E-01  3.35434936E-01  5.99015560E-01  2.51038715E+00
Total SCF Density                          R   N=          10
  3.35435486E-01  1.23295097E-01  5.26119960E-02  3.06260941E-01  1.12473244E-01
  3.35435486E-01  1.12473244E-01  4.32822279E-02  1.23295097E-01  5.26119960E-02
Pure Switching                             I                1
Dipole_Data                                R   N=           3
  0.00000000E+00  0.00000000E+00 -5.92600107E-15
Quadrupole_Data                            R   N=           6
 -1.35719131E+00  0.00000000E+00 -1.35719131E+00  0.00000000E+00  0.00000000E+00
 -1.27899260E+00
Octapole_Data                              R   N=          10
  0.00000000E+00  0.00000000E+00  0.00000000E+00  0.00000000E+00 -1.76316490E-15
  0.00000000E+00 -1.76316490E-15  0.00000000E+00  0.00000000E+00 -5.47223166E-15
Hexadecapole_Data                          R   N=          15
 -9.01960316E-01  0.00000000E+00 -3.00653439E-01  0.00000000E+00 -9.01960316E-01
  0.00000000E+00  0.00000000E+00  0.00000000E+00  0.00000000E+00 -3.19399523E-01
  0.00000000E+00 -3.19399523E-01  0.00000000E+00  0.00000000E+00 -1.01244255E+00
