Jobname.Temp
FOPT      R                             STO-3G              
Number of atoms                            I                3
Charge                                     I                0
Multiplicity                               I                1
Number of electrons                        I               10
Number of alpha electrons                  I                5
Number of beta electrons                   I                5
Atomic numbers                             I   N=           3
           1           8           1
Current cartesian coordinates              R   N=           9
  1.47983867E+00 -9.16332629E-01 -5.49641992E-16 -3.62951360E-05  2.29111256E-01
  1.50800916E-16 -1.47954831E+00 -9.16557422E-01 -6.79051392E-16
Nuclear charges                            R   N=           3
  1.00000000E+00  8.00000000E+00  1.00000000E+00
Number of basis functions                  I                7
Number of contracted shells                I                4
Number of primitive shells                 I               12
Highest angular momentum                   I                1
Largest degree of contraction              I                3
Shell types                                I   N=           4
           0           0          -1           0
Number of primitives per shell             I   N=           4
           3           3           3           3
Shell to atom map                          I   N=           4
           1           2           2           3
Primitive exponents                        R   N=          12
  3.42525091E+00  6.23913730E-01  1.68855400E-01  1.30709320E+02  2.38088610E+01
  6.44360830E+00  5.03315130E+00  1.16959610E+00  3.80389000E-01  3.42525091E+00
  6.23913730E-01  1.68855400E-01
Contraction coefficients                   R   N=          12
  1.54328971E-01  5.35328142E-01  4.44634542E-01  1.54328969E-01  5.35328136E-01
  4.44634536E-01 -9.99672287E-02  3.99512825E-01  7.00115461E-01  1.54328971E-01
  5.35328142E-01  4.44634542E-01
P(S=P) Contraction coefficients            R   N=          12
  0.00000000E+00  0.00000000E+00  0.00000000E+00  0.00000000E+00  0.00000000E+00
  0.00000000E+00  1.55916268E-01  6.07683714E-01  3.91957386E-01  0.00000000E+00
  0.00000000E+00  0.00000000E+00
Coordinates of each shell                  R   N=          12
  1.47983867E+00 -9.16332629E-01 -5.49641992E-16 -3.62951360E-05  2.29111256E-01
  1.50800916E-16 -3.62951360E-05  2.29111256E-01  1.50800916E-16 -1.47954831E+00
 -9.16557422E-01 -6.79051392E-16
Overlap Matrix                             R   N=          28
  1.00000000E+00  4.98927228E-02  1.00000000E+00  4.53343482E-01  2.36703937E-01
  1.00000000E+00  3.01862146E-01  2.88381382E-21 -6.02403673E-21  1.00000000E+00
 -2.33645515E-01 -2.93283873E-18  3.69138714E-17 -1.90866848E-37  1.00000000E+00
 -1.42875043E-16  0.00000000E+00  0.00000000E+00  0.00000000E+00  0.00000000E+00
  1.00000000E+00  2.33413667E-01  4.99021190E-02  4.53394133E-01 -3.01834750E-01
 -2.33727483E-01 -1.69297891E-16  1.00000000E+00
Core Hamiltonian Matrix                    R   N=          28
 -4.94189473E+00 -1.61556327E+00 -3.26840264E+01 -3.53279522E+00 -7.60407278E+00
 -9.30109046E+00 -1.94890980E+00 -6.65447357E-08 -4.21076749E-06 -7.57477052E+00
  1.57459799E+00  1.77584730E-02  2.11268997E-01 -1.64856416E-05 -7.51678501E+00
  9.66602987E-16  1.18614779E-17  1.41113478E-16 -6.33261741E-18 -5.79422835E-17
 -7.43003752E+00 -1.46306409E+00 -1.61586705E+00 -3.53325857E+00  1.94876401E+00
  1.57516460E+00  1.13722292E-15 -4.94218272E+00
Orbital Coefficients CCMAN2 Alpha          R   N=          49
  5.61355773E-03 -9.94207180E-01 -2.58919722E-02  9.32761740E-08  4.03421528E-03
  6.91366650E-16  5.61455046E-03  1.56147794E-01 -2.34131997E-01  8.45730447E-01
 -7.69608617E-06 -1.18380029E-01 -1.35910660E-15  1.56177538E-01  4.47108006E-01
 -1.33030783E-05  7.20109186E-05  6.05500840E-01  1.06993206E-04  1.90496386E-15
 -4.47115761E-01  2.90800090E-01  1.01333686E-01 -5.25480674E-01  1.11766565E-04
 -7.69596810E-01 -3.29786355E-16  2.90742014E-01  4.94492266E-17 -1.15397175E-16
  2.49684663E-16  8.23706402E-16  7.25510786E-16 -1.00000000E+00 -1.57630005E-15
  7.74253908E-01  1.27666814E-01 -8.28872902E-01 -3.67790728E-04  7.40516190E-01
  1.04453491E-16  7.73809551E-01  8.09500344E-01 -4.53193166E-05  3.23833566E-04
 -9.72216381E-01 -3.47221595E-04  8.88485731E-17 -8.10037694E-01
Orbital Coefficients CCMAN2 Beta           R   N=          49
  1.56147794E-01 -2.34131997E-01  8.45730447E-01 -7.69608617E-06 -1.18380029E-01
 -1.35910660E-15  1.56177538E-01  4.47108006E-01 -1.33030783E-05  7.20109186E-05
  6.05500840E-01  1.06993206E-04  1.90496386E-15 -4.47115761E-01  2.90800090E-01
  1.01333686E-01 -5.25480674E-01  1.11766565E-04 -7.69596810E-01 -3.29786355E-16
  2.90742014E-01  4.94492266E-17 -1.15397175E-16  2.49684663E-16  8.23706402E-16
  7.25510786E-16 -1.00000000E+00 -1.57630005E-15  7.74253908E-01  1.27666814E-01
 -8.28872902E-01 -3.67790728E-04  7.40516190E-01  1.04453491E-16  7.73809551E-01
  8.09500344E-01 -4.53193166E-05  3.23833566E-04 -9.72216381E-01 -3.47221595E-04
  8.88485731E-17 -8.10037694E-01  5.61355773E-03 -9.94207180E-01 -2.58919722E-02
  9.32761740E-08  4.03421528E-03  6.91366650E-16  5.61455046E-03
Dipole_Data                                R   N=           3
  9.88542438E-05 -1.55901498E+00  5.09850125E-15
Quadrupole_Data                            R   N=           6
 -4.49796317E+00  6.82484517E-05 -5.45670173E+00 -5.87729075E-16  1.14461754E-15
 -6.13717593E+00
Octapole_Data                              R   N=          10
  9.34503595E-05 -4.54356490E-01 -9.45952480E-05 -2.54621619E-02  5.97854959E-17
 -8.06138869E-17  4.55779036E-16 -3.31050742E-05  4.01787703E-02  1.81587761E-15
Hexadecapole_Data                          R   N=          15
 -7.13808332E+00 -7.00670509E-05 -1.84999892E+00  8.46969547E-05 -5.17449090E+00
 -3.09471447E-16  1.53067504E-16 -1.06554149E-16 -2.86230202E-16 -1.88530862E+00
  5.31015459E-06 -1.44562434E+00 -3.37570803E-16 -4.26975388E-16 -3.28912178E+00
Current cartesian coordinates              R   N=           9
  1.59068084E+00 -1.00766343E+00  0.00000000E+00 -4.11506983E-05  4.11808340E-01
  0.00000000E+00 -1.59038562E+00 -1.00792371E+00  0.00000000E+00
Overlap Matrix                             R   N=          28
  1.00000000E+00  3.59168490E-02  1.00000000E+00  3.69922901E-01  2.36703937E-01
  1.00000000E+00  2.46099275E-01  2.35526266E-22 -6.02403673E-21  1.00000000E+00
 -2.19605296E-01 -3.17321423E-17  4.42745006E-17 -3.81733696E-37  1.00000000E+00
  0.00000000E+00  0.00000000E+00  0.00000000E+00  0.00000000E+00  0.00000000E+00
  1.00000000E+00  1.96159627E-01  3.59217345E-02  3.69955423E-01 -2.46069805E-01
 -2.19671395E-01  0.00000000E+00  1.00000000E+00
Core Hamiltonian Matrix                    R   N=          28
 -4.46318704E+00 -1.15907597E+00 -3.25533783E+01 -2.76671364E+00 -7.57314786E+00
 -9.17791118E+00 -1.52347474E+00 -7.07883577E-07 -9.63123644E-06 -7.42178456E+00
  1.41114959E+00  1.48826770E-02  1.82769293E-01 -7.40401241E-06 -7.40268100E+00
  0.00000000E+00  0.00000000E+00  0.00000000E+00  0.00000000E+00  0.00000000E+00
 -7.32785718E+00 -1.11884406E+00 -1.15923341E+00 -2.76699125E+00  1.52330517E+00
  1.41158137E+00  0.00000000E+00 -4.46335841E+00
Orbital Coefficients CCMAN2 Alpha          R   N=          49
  4.30779889E-03 -9.94499611E-01 -2.36515231E-02 -6.93988861E-08  3.08457958E-03
  8.27906999E-17  4.30833148E-03 -1.39556252E-01  2.40252780E-01 -8.94764351E-01
  1.35207840E-06  8.23331945E-02 -4.03162036E-16 -1.39573715E-01 -4.55035775E-01
  1.39828963E-05 -7.28042829E-05 -6.22933252E-01 -1.35342606E-04  1.12981466E-15
  4.55088010E-01 -3.44691783E-01 -9.43589004E-02  4.79810204E-01 -1.34038215E-04
  7.21014956E-01 -3.87894093E-14 -3.44598241E-01 -1.43952645E-14 -3.90524139E-15
  1.98661619E-14  2.56802974E-16  2.60456013E-14  1.00000000E+00 -1.53809888E-14
  6.86676480E-01  1.04871587E-01 -6.20812412E-01 -3.44047998E-04  7.68742260E-01
  2.08595259E-15  6.86267592E-01  7.24538711E-01 -3.57850385E-05  2.23069095E-04
 -8.88455779E-01 -3.33608484E-04  1.89804641E-16 -7.24982238E-01
Orbital Coefficients CCMAN2 Beta           R   N=          49
 -1.39556252E-01  2.40252780E-01 -8.94764351E-01  1.35207840E-06  8.23331945E-02
 -4.03162036E-16 -1.39573715E-01 -4.55035775E-01  1.39828963E-05 -7.28042829E-05
 -6.22933252E-01 -1.35342606E-04  1.12981466E-15  4.55088010E-01 -3.44691783E-01
 -9.43589004E-02  4.79810204E-01 -1.34038215E-04  7.21014956E-01 -3.87894093E-14
 -3.44598241E-01 -1.43952645E-14 -3.90524139E-15  1.98661619E-14  2.56802974E-16
  2.60456013E-14  1.00000000E+00 -1.53809888E-14  6.86676480E-01  1.04871587E-01
 -6.20812412E-01 -3.44047998E-04  7.68742260E-01  2.08595259E-15  6.86267592E-01
  7.24538711E-01 -3.57850385E-05  2.23069095E-04 -8.88455779E-01 -3.33608484E-04
  1.89804641E-16 -7.24982238E-01  4.30779889E-03 -9.94499611E-01 -2.36515231E-02
 -6.93988861E-08  3.08457958E-03  8.27906999E-17  4.30833148E-03
Dipole_Data                                R   N=           3
  7.58719677E-05 -1.32235505E+00  4.22050380E-16
Quadrupole_Data                            R   N=           6
 -4.75894660E+00  5.93391984E-05 -5.54626778E+00  1.84552985E-16  3.32543411E-15
 -6.24533659E+00
Octapole_Data                              R   N=          10
  8.58232053E-05 -7.13910619E-01 -9.77365824E-05 -8.69221865E-01  6.93038140E-16
  8.84821396E-17  2.03828517E-15 -2.60178822E-05 -2.79342412E-01  8.38777562E-16
Hexadecapole_Data                          R   N=          15
 -8.47082688E+00 -8.14399945E-05 -2.25700545E+00  9.18921176E-05 -6.58688763E+00
  1.03337172E-17  2.93854483E-16  2.29435758E-17  1.62452021E-15 -2.13030844E+00
  2.56237436E-06 -1.72532605E+00  3.24766207E-17  1.06451444E-15 -3.41430953E+00
Current cartesian coordinates              R   N=           9
  1.70948648E+00 -1.10102665E+00  0.00000000E+00 -5.17702848E-05  5.98566905E-01
  0.00000000E+00 -1.70918064E+00 -1.10131905E+00  0.00000000E+00
Overlap Matrix                             R   N=          28
  1.00000000E+00  2.54348989E-02  1.00000000E+00  2.92556241E-01  2.36703937E-01
  1.00000000E+00  1.94226173E-01  3.61111376E-21 -6.64347133E-21  1.00000000E+00
 -1.93096324E-01 -4.34122260E-18  9.86978177E-17 -7.63467391E-37  1.00000000E+00
  0.00000000E+00  0.00000000E+00  0.00000000E+00  0.00000000E+00  0.00000000E+00
  1.00000000E+00  1.61788707E-01  2.54375045E-02  2.92577678E-01 -1.94198095E-01
 -1.93147878E-01  0.00000000E+00  1.00000000E+00
Core Hamiltonian Matrix                    R   N=          28
 -4.04328084E+00 -8.18390875E-01 -3.24449279E+01 -2.10578597E+00 -7.54747724E+00
 -9.07225814E+00 -1.15382931E+00 -8.35633192E-07 -1.06794752E-05 -7.29946239E+00
  1.18508203E+00  1.23264479E-02  1.53873438E-01 -2.96784341E-06 -7.29877504E+00
  0.00000000E+00  0.00000000E+00  0.00000000E+00  0.00000000E+00  0.00000000E+00
 -7.23805756E+00 -8.41573531E-01 -8.18474666E-01 -2.10595721E+00  1.15366710E+00
  1.18540156E+00  0.00000000E+00 -4.04338930E+00
Orbital Coefficients CCMAN2 Alpha          R   N=          49
  3.27272553E-03 -9.94718442E-01 -2.21613749E-02 -1.01992660E-07  2.24709525E-03
  1.52435019E-16  3.27303899E-03 -1.18683606E-01  2.46921605E-01 -9.38900373E-01
 -2.36267508E-07  5.00129530E-02 -2.67854721E-16 -1.18693846E-01 -4.56165639E-01
  2.15476903E-05 -1.08587733E-04 -6.48879182E-01 -2.22332158E-04  6.29032118E-15
  4.56332296E-01 -3.88976510E-01 -8.15728024E-02  4.08017365E-01 -2.16890828E-04
  6.84225509E-01  1.85774813E-14 -3.88766398E-01 -1.10135138E-14 -1.67574956E-15
  8.17938100E-15 -3.58118985E-15  1.20487684E-14 -1.00000000E+00 -4.53724067E-15
 -6.19064686E-01 -8.36070569E-02  4.61450992E-01  3.64398882E-04 -7.81744382E-01
  6.92074269E-16 -6.18617117E-01  6.68611574E-01 -3.18608548E-05  1.80315093E-04
 -8.23318528E-01 -3.61183273E-04 -1.34756156E-16 -6.69055753E-01
Orbital Coefficients CCMAN2 Beta           R   N=          49
 -1.18683606E-01  2.46921605E-01 -9.38900373E-01 -2.36267508E-07  5.00129530E-02
 -2.67854721E-16 -1.18693846E-01 -4.56165639E-01  2.15476903E-05 -1.08587733E-04
 -6.48879182E-01 -2.22332158E-04  6.29032118E-15  4.56332296E-01 -3.88976510E-01
 -8.15728024E-02  4.08017365E-01 -2.16890828E-04  6.84225509E-01  1.85774813E-14
 -3.88766398E-01 -1.10135138E-14 -1.67574956E-15  8.17938100E-15 -3.58118985E-15
  1.20487684E-14 -1.00000000E+00 -4.53724067E-15 -6.19064686E-01 -8.36070569E-02
  4.61450992E-01  3.64398882E-04 -7.81744382E-01  6.92074269E-16 -6.18617117E-01
  6.68611574E-01 -3.18608548E-05  1.80315093E-04 -8.23318528E-01 -3.61183273E-04
 -1.34756156E-16 -6.69055753E-01  3.27272553E-03 -9.94718442E-01 -2.21613749E-02
 -1.01992660E-07  2.24709525E-03  1.52435019E-16  3.27303899E-03
Dipole_Data                                R   N=           3
  5.92670417E-05 -1.04922919E+00 -1.02693005E-15
Quadrupole_Data                            R   N=           6
 -4.96610438E+00  4.71005650E-05 -5.57313473E+00  5.53603581E-16 -9.95960085E-16
 -6.32573385E+00
Octapole_Data                              R   N=          10
  1.19132311E-04 -9.81095875E-01 -9.01304953E-05 -1.68145679E+00 -2.28881930E-16
  2.61789035E-16 -7.55997615E-16 -6.64437903E-06 -6.10156440E-01 -4.92481170E-16
Hexadecapole_Data                          R   N=          15
 -9.90191034E+00 -7.63021187E-05 -2.77575091E+00  1.12608319E-04 -8.49813413E+00
  9.76734906E-17 -1.07170901E-16  1.18273077E-16 -6.11106514E-16 -2.38674160E+00
  7.25465767E-06 -2.09799306E+00  1.35191820E-16 -3.43293043E-16 -3.51349700E+00
Current cartesian coordinates              R   N=           9
  1.83768314E+00 -1.19832936E+00  0.00000000E+00 -5.71830547E-05  7.93212179E-01
  0.00000000E+00 -1.83737189E+00 -1.19866162E+00  0.00000000E+00
Overlap Matrix                             R   N=          28
  1.00000000E+00  1.77886460E-02  1.00000000E+00  2.23497119E-01  2.36703937E-01
  1.00000000E+00  1.48131851E-01  1.91393912E-21 -1.68068013E-20  1.00000000E+00
 -1.60529064E-01 -5.67667226E-17  0.00000000E+00  0.00000000E+00  1.00000000E+00
  0.00000000E+00  0.00000000E+00  0.00000000E+00  0.00000000E+00  0.00000000E+00
  1.00000000E+00  1.30442305E-01  1.77895733E-02  2.23506317E-01 -1.48105194E-01
 -1.60564140E-01  0.00000000E+00  1.00000000E+00
Core Hamiltonian Matrix                    R   N=          28
 -3.67486849E+00 -5.70778253E-01 -3.23532972E+01 -1.55430759E+00 -7.52578788E+00
 -8.98153214E+00 -8.46448421E-01 -8.55814608E-07 -1.08006126E-05 -7.19943200E+00
  9.43719445E-01  1.01672597E-02  1.27861961E-01 -3.23117241E-07 -7.20651516E+00
  0.00000000E+00  0.00000000E+00  0.00000000E+00  0.00000000E+00  0.00000000E+00
 -7.15892271E+00 -6.20559735E-01 -5.70808015E-01 -1.55437677E+00  8.46294893E-01
  9.43924648E-01  0.00000000E+00 -3.67491503E+00
Orbital Coefficients CCMAN2 Alpha          R   N=          49
 -2.44356776E-03  9.94868696E-01  2.12154034E-02  1.12761443E-07 -1.57937081E-03
  2.73028282E-16 -2.44369376E-03 -9.72535421E-02  2.52567619E-01 -9.72647911E-01
 -1.01488274E-06  2.56223020E-02  1.41762652E-16 -9.72574962E-02 -4.50502628E-01
  1.00570547E-04 -4.97143447E-04 -6.81160593E-01 -1.03609222E-03 -9.48141837E-16
  4.51771137E-01 -4.29605021E-01 -6.69408480E-02  3.30751383E-01 -1.07550059E-03
  6.52456519E-01 -2.29324927E-13 -4.28264954E-01  9.93151497E-14  1.55033648E-14
 -7.67220688E-14  1.05681407E-15 -1.48411113E-13 -1.00000000E+00  9.84597391E-14
 -5.64792726E-01 -6.44481366E-02  3.37651026E-01  4.48928277E-04 -7.91478406E-01
 -1.23447631E-15 -5.64187086E-01 -6.33788744E-01  3.23882713E-05 -1.70888991E-04
  7.67568113E-01  4.60477466E-04  1.67833010E-16  6.34338718E-01
Orbital Coefficients CCMAN2 Beta           R   N=          49
 -9.72535421E-02  2.52567619E-01 -9.72647911E-01 -1.01488274E-06  2.56223020E-02
  1.41762652E-16 -9.72574962E-02 -4.50502628E-01  1.00570547E-04 -4.97143447E-04
 -6.81160593E-01 -1.03609222E-03 -9.48141837E-16  4.51771137E-01 -4.29605021E-01
 -6.69408480E-02  3.30751383E-01 -1.07550059E-03  6.52456519E-01 -2.29324927E-13
 -4.28264954E-01  9.93151497E-14  1.55033648E-14 -7.67220688E-14  1.05681407E-15
 -1.48411113E-13 -1.00000000E+00  9.84597391E-14 -5.64792726E-01 -6.44481366E-02
  3.37651026E-01  4.48928277E-04 -7.91478406E-01 -1.23447631E-15 -5.64187086E-01
 -6.33788744E-01  3.23882713E-05 -1.70888991E-04  7.67568113E-01  4.60477466E-04
  1.67833010E-16  6.34338718E-01 -2.44356776E-03  9.94868696E-01  2.12154034E-02
  1.12761443E-07 -1.57937081E-03  2.73028282E-16 -2.44369376E-03
Dipole_Data                                R   N=           3
  5.38826077E-05 -7.70493327E-01  1.09625787E-15
Quadrupole_Data                            R   N=           6
 -5.13888652E+00  3.14032569E-05 -5.56326117E+00 -1.43081386E-16  2.05976225E-15
 -6.37807934E+00
Octapole_Data                              R   N=          10
  1.30751231E-04 -1.22627974E+00 -8.16741416E-05 -2.47112092E+00  3.18656423E-16
 -4.92691451E-17  1.87375271E-15  4.52475064E-06 -9.60014814E-01  6.28578804E-16
Hexadecapole_Data                          R   N=          15
 -1.15293605E+01 -9.10569246E-05 -3.45388026E+00  9.98179173E-05 -1.10042008E+01
 -5.84563313E-17  2.34423389E-16 -3.94530904E-17  1.75149392E-15 -2.66373303E+00
  4.78075223E-06 -2.58294066E+00 -5.39402483E-17  7.26313958E-16 -3.58552664E+00
Current cartesian coordinates              R   N=           9
  1.96703236E+00 -1.29018686E+00  0.00000000E+00 -6.08561160E-05  9.76967881E-01
  0.00000000E+00 -1.96671744E+00 -1.29055981E+00  0.00000000E+00
Overlap Matrix                             R   N=          28
  1.00000000E+00  1.26716212E-02  1.00000000E+00  1.69341277E-01  2.36703937E-01
  1.00000000E+00  1.12497741E-01 -9.62387771E-22 -1.26675081E-20  1.00000000E+00
 -1.29658211E-01 -3.95580634E-17  2.63459785E-16 -2.68566992E-36  1.00000000E+00
  0.00000000E+00  0.00000000E+00  0.00000000E+00  0.00000000E+00  0.00000000E+00
  1.00000000E+00  1.04108697E-01  1.26716857E-02  1.69342003E-01 -1.12473358E-01
 -1.29680217E-01  0.00000000E+00  1.00000000E+00
Core Hamiltonian Matrix                    R   N=          28
 -3.37866647E+00 -4.05634963E-01 -3.22815725E+01 -1.14577983E+00 -7.50881037E+00
 -8.91003852E+00 -6.22678543E-01 -8.03859810E-07 -1.01368126E-05 -7.12320668E+00
  7.35785922E-01  8.51717142E-03  1.07392253E-01  8.15329422E-07 -7.13245916E+00
  0.00000000E+00  0.00000000E+00  0.00000000E+00  0.00000000E+00  0.00000000E+00
 -7.09507195E+00 -4.58208223E-01 -4.05637029E-01 -1.14578504E+00  6.22540352E-01
  7.35908034E-01  0.00000000E+00 -3.37867029E+00
Orbital Coefficients CCMAN2 Alpha          R   N=          49
 -1.83269254E-03  9.94955013E-01  2.06930544E-02  1.03775649E-07 -1.11493371E-03
  2.81921743E-16 -1.83270210E-03  7.91884804E-02 -2.56383068E-01  9.94092997E-01
  9.48615594E-07 -1.08355732E-02  1.21215549E-15  7.91887737E-02  9.61487989E-15
  9.34634076E-16 -4.98308019E-15  1.06062040E-15 -1.86753442E-14 -1.00000000E+00
  1.07231369E-14  4.34607971E-01 -3.05466473E-04  1.49603611E-03  7.18400541E-01
  3.54945187E-03  2.41247756E-16 -4.39855923E-01  4.69599311E-01  5.43613973E-02
 -2.66235046E-01  4.09489292E-03 -6.19617478E-01  2.55594296E-14  4.64686945E-01
 -6.19005590E-01 -1.39251167E-06  6.96677475E-06  7.16206457E-01  4.40442877E-05
  9.47308810E-16  6.18974133E-01 -5.19398152E-01 -4.89756000E-02  2.47421405E-01
  5.51924303E-05 -8.05721820E-01  3.45490333E-15 -5.19436509E-01
Orbital Coefficients CCMAN2 Beta           R   N=          49
  7.91884804E-02 -2.56383068E-01  9.94092997E-01  9.48615594E-07 -1.08355732E-02
  1.21215549E-15  7.91887737E-02  9.61487989E-15  9.34634076E-16 -4.98308019E-15
  1.06062040E-15 -1.86753442E-14 -1.00000000E+00  1.07231369E-14  4.34607971E-01
 -3.05466473E-04  1.49603611E-03  7.18400541E-01  3.54945187E-03  2.41247756E-16
 -4.39855923E-01  4.69599311E-01  5.43613973E-02 -2.66235046E-01  4.09489292E-03
 -6.19617478E-01  2.55594296E-14  4.64686945E-01 -6.19005590E-01 -1.39251167E-06
  6.96677475E-06  7.16206457E-01  4.40442877E-05  9.47308810E-16  6.18974133E-01
 -5.19398152E-01 -4.89756000E-02  2.47421405E-01  5.51924303E-05 -8.05721820E-01
  3.45490333E-15 -5.19436509E-01 -1.83269254E-03  9.94955013E-01  2.06930544E-02
  1.03775649E-07 -1.11493371E-03  2.81921743E-16 -1.83270210E-03
Dipole_Data                                R   N=           3
  4.86766074E-05 -5.22505616E-01 -3.72980173E-15
Quadrupole_Data                            R   N=           6
 -5.27736443E+00  1.82794870E-05 -5.56440294E+00  1.27896906E-15 -4.82030952E-15
 -6.40093919E+00
Octapole_Data                              R   N=          10
  1.18201010E-04 -1.38116187E+00 -5.68935827E-05 -3.18988580E+00 -1.09044583E-15
  9.41446081E-16 -5.21646302E-15  1.18228364E-05 -1.29398607E+00 -2.00288421E-15
Hexadecapole_Data                          R   N=          15
 -1.33194785E+01 -1.16882076E-04 -4.25575179E+00  6.07277648E-05 -1.39036605E+01
  1.56678511E-16 -5.52581383E-16  5.70354308E-16 -5.08945592E-15 -2.94748547E+00
 -1.83080354E-06 -3.13521483E+00  2.70720623E-16 -1.68782144E-15 -3.62518613E+00
Current cartesian coordinates              R   N=           9
  1.98674148E+00 -1.29415924E+00  0.00000000E+00 -6.00654508E-05  9.84918164E-01
  0.00000000E+00 -1.98642735E+00 -1.29453772E+00  0.00000000E+00
Overlap Matrix                             R   N=          28
  1.00000000E+00  1.23539914E-02  1.00000000E+00  1.65753688E-01  2.36703937E-01
  1.00000000E+00  1.10699841E-01  4.54436115E-21 -1.56556470E-20  1.00000000E+00
 -1.26984754E-01 -1.15908745E-18  4.69341814E-17 -7.55585957E-37  1.00000000E+00
  0.00000000E+00  0.00000000E+00  0.00000000E+00  0.00000000E+00  0.00000000E+00
  1.00000000E+00  1.00517466E-01  1.23539916E-02  1.65753691E-01 -1.10675646E-01
 -1.27005844E-01  0.00000000E+00  1.00000000E+00
Core Hamiltonian Matrix                    R   N=          28
 -3.35724011E+00 -3.95403002E-01 -3.22767392E+01 -1.11927559E+00 -7.50766631E+00
 -8.90521273E+00 -6.11377529E-01 -7.97974339E-07 -1.00626385E-05 -7.11840148E+00
  7.18737292E-01  8.37699705E-03  1.05635815E-01  8.34254293E-07 -7.12716115E+00
  0.00000000E+00  0.00000000E+00  0.00000000E+00  0.00000000E+00  0.00000000E+00
 -7.09071294E+00 -4.40647212E-01 -3.95403008E-01 -1.11927561E+00  6.11240589E-01
  7.18853769E-01  0.00000000E+00 -3.35724012E+00
Orbital Coefficients CCMAN2 Alpha          R   N=          49
 -1.79548052E-03  9.94959682E-01  2.06652340E-02  1.03418967E-07 -1.08592611E-03
  6.21488762E-17 -1.79548055E-03 -7.79739730E-02  2.56612515E-01 -9.95349239E-01
 -9.54084271E-07  1.00060859E-02  1.06360856E-15 -7.79739728E-02 -7.23857142E-15
 -5.51566435E-16  2.47950469E-15 -3.03647956E-15  1.17276887E-14 -1.00000000E+00
 -4.71325776E-15 -4.37112337E-01 -1.10561458E-07  5.40617673E-07 -7.19103071E-01
 -6.72025690E-05  3.59792605E-15  4.37110397E-01 -4.68974282E-01 -5.33679863E-02
  2.61231345E-01 -5.75179766E-05  6.19530531E-01  1.57155527E-14 -4.68976098E-01
  6.16746435E-01  1.57103177E-08 -7.91241001E-08 -7.14769542E-01 -6.78161512E-05
  5.44427264E-16 -6.16746089E-01 -5.17838112E-01 -4.81070895E-02  2.42447427E-01
  7.64304904E-05 -8.04959999E-01 -2.25106267E-15 -5.17838519E-01
Orbital Coefficients CCMAN2 Beta           R   N=          49
 -7.79739730E-02  2.56612515E-01 -9.95349239E-01 -9.54084271E-07  1.00060859E-02
  1.06360856E-15 -7.79739728E-02 -7.23857142E-15 -5.51566435E-16  2.47950469E-15
 -3.03647956E-15  1.17276887E-14 -1.00000000E+00 -4.71325776E-15 -4.37112337E-01
 -1.10561458E-07  5.40617673E-07 -7.19103071E-01 -6.72025690E-05  3.59792605E-15
  4.37110397E-01 -4.68974282E-01 -5.33679863E-02  2.61231345E-01 -5.75179766E-05
  6.19530531E-01  1.57155527E-14 -4.68976098E-01  6.16746435E-01  1.57103177E-08
 -7.91241001E-08 -7.14769542E-01 -6.78161512E-05  5.44427264E-16 -6.16746089E-01
 -5.17838112E-01 -4.81070895E-02  2.42447427E-01  7.64304904E-05 -8.04959999E-01
 -2.25106267E-15 -5.17838519E-01 -1.79548052E-03  9.94959682E-01  2.06652340E-02
  1.03418967E-07 -1.08592611E-03  6.21488762E-17 -1.79548055E-03
Dipole_Data                                R   N=           3
  4.81474965E-05 -5.04328581E-01  3.12877270E-15
Quadrupole_Data                            R   N=           6
 -5.27947145E+00  1.84377756E-05 -5.56834498E+00 -1.40751218E-16  2.65893066E-15
 -6.40184429E+00
Octapole_Data                              R   N=          10
  1.12586348E-04 -1.38342307E+00 -5.69650924E-05 -3.21232202E+00  9.33375693E-16
 -9.03282086E-17  2.96694067E-15  1.01633420E-05 -1.30708410E+00  1.73946532E-15
Hexadecapole_Data                          R   N=          15
 -1.35519682E+01 -1.30276848E-04 -4.32126245E+00  4.61352441E-05 -1.40510110E+01
 -3.05446483E-17  3.22157879E-16 -5.92840824E-17  2.74505433E-15 -2.98715432E+00
 -6.66765466E-06 -3.16233943E+00 -3.75388343E-17  9.88853590E-16 -3.62731771E+00
Current cartesian coordinates              R   N=           9
  2.17581834E+00 -1.24570447E+00  0.00000000E+00 -5.27910763E-05  8.88042403E-01
  0.00000000E+00 -2.17551148E+00 -1.24611673E+00  0.00000000E+00
Overlap Matrix                             R   N=          28
  1.00000000E+00  1.20153629E-02  1.00000000E+00  1.61900397E-01  2.36703937E-01
  1.00000000E+00  1.17818013E-01  3.31105853E-21  1.31384094E-21  1.00000000E+00
 -1.15537089E-01  6.39779965E-17  1.86287937E-16  1.14336227E-36  1.00000000E+00
  0.00000000E+00  0.00000000E+00  0.00000000E+00  0.00000000E+00  0.00000000E+00
  1.00000000E+00  7.10427957E-02  1.20154432E-02  1.61901314E-01 -1.17796490E-01
 -1.15560207E-01  0.00000000E+00  1.00000000E+00
Core Hamiltonian Matrix                    R   N=          28
 -3.31499933E+00 -3.84484263E-01 -3.22715300E+01 -1.08855445E+00 -7.50643327E+00
 -8.90001088E+00 -6.48542828E-01 -7.17978956E-07 -9.05599368E-06 -7.11794545E+00
  6.49872434E-01  7.65909080E-03  9.65929148E-02 -2.03265793E-07 -7.11673255E+00
  0.00000000E+00  0.00000000E+00  0.00000000E+00  0.00000000E+00  0.00000000E+00
 -7.08600728E+00 -3.19706937E-01 -3.84486834E-01 -1.08856099E+00  6.48422010E-01
  6.50000028E-01  0.00000000E+00 -3.31500420E+00
Orbital Coefficients CCMAN2 Alpha          R   N=          49
  1.78978282E-03 -9.94962978E-01 -2.06461803E-02 -9.63931233E-08  1.04746081E-03
 -4.32041734E-17  1.78979456E-03 -7.71662758E-02  2.56845902E-01 -9.96590006E-01
 -7.70061139E-07  9.16931549E-03 -4.42617421E-19 -7.71666431E-02  5.94405414E-15
 -9.00502939E-17  1.07164212E-15  1.58030862E-14  2.02005868E-15 -1.00000000E+00
 -1.10075820E-14 -4.57430529E-01  2.08984347E-06 -1.02550634E-05 -6.81415677E-01
 -9.10687998E-05 -2.08685726E-14  4.57465582E-01 -4.52232952E-01 -5.00914500E-02
  2.45374194E-01 -8.99765346E-05  6.61483978E-01  3.84372376E-15 -4.52196937E-01
  5.42579831E-01  4.99229276E-02 -2.50715399E-01 -1.06643949E-04  7.67668035E-01
 -9.76519142E-16  5.42528355E-01 -5.87816755E-01  2.33620130E-06 -1.18149549E-05
  7.52643876E-01  1.06101334E-04  1.50495815E-15  5.87865193E-01
Orbital Coefficients CCMAN2 Beta           R   N=          49
 -7.71662758E-02  2.56845902E-01 -9.96590006E-01 -7.70061139E-07  9.16931549E-03
 -4.42617421E-19 -7.71666431E-02  5.94405414E-15 -9.00502939E-17  1.07164212E-15
  1.58030862E-14  2.02005868E-15 -1.00000000E+00 -1.10075820E-14 -4.57430529E-01
  2.08984347E-06 -1.02550634E-05 -6.81415677E-01 -9.10687998E-05 -2.08685726E-14
  4.57465582E-01 -4.52232952E-01 -5.00914500E-02  2.45374194E-01 -8.99765346E-05
  6.61483978E-01  3.84372376E-15 -4.52196937E-01  5.42579831E-01  4.99229276E-02
 -2.50715399E-01 -1.06643949E-04  7.67668035E-01 -9.76519142E-16  5.42528355E-01
 -5.87816755E-01  2.33620130E-06 -1.18149549E-05  7.52643876E-01  1.06101334E-04
  1.50495815E-15  5.87865193E-01  1.78978282E-03 -9.94962978E-01 -2.06461803E-02
 -9.63931233E-08  1.04746081E-03 -4.32041734E-17  1.78979456E-03
Dipole_Data                                R   N=           3
  4.09283954E-05 -4.64162138E-01  2.76425147E-15
Quadrupole_Data                            R   N=           6
 -5.17182239E+00  3.37537012E-05 -5.59862712E+00  2.75192924E-15  8.15028251E-17
 -6.40565391E+00
Octapole_Data                              R   N=          10
  9.25349596E-05 -1.27906084E+00 -9.28802230E-05 -2.62259484E+00 -1.00081325E-16
  1.62039192E-15 -6.22876528E-16 -6.24579393E-06 -1.10069466E+00  5.51215775E-16
Hexadecapole_Data                          R   N=          15
 -1.53943583E+01 -2.61208328E-04 -4.40666553E+00 -9.64783314E-05 -1.25661335E+01
  5.49528709E-16  1.59823389E-17  9.90188447E-16 -7.48875675E-16 -3.35299635E+00
 -6.05302819E-05 -2.87815138E+00  7.21710612E-16  1.73307874E-17 -3.63478868E+00
Current cartesian coordinates              R   N=           9
  2.20517839E+00 -1.22441098E+00  0.00000000E+00 -4.66970337E-05  8.45462934E-01
  0.00000000E+00 -2.20487763E+00 -1.22483075E+00  0.00000000E+00
Overlap Matrix                             R   N=          28
  1.00000000E+00  1.23402319E-02  1.00000000E+00  1.65597690E-01  2.36703937E-01
  1.00000000E+00  1.22729209E-01  1.85650451E-21  0.00000000E+00  1.00000000E+00
 -1.15196399E-01 -6.24232483E-17  1.36278332E-16  0.00000000E+00  1.00000000E+00
  0.00000000E+00  0.00000000E+00  0.00000000E+00  0.00000000E+00  0.00000000E+00
  1.00000000E+00  6.72012270E-02  1.23402328E-02  1.65597699E-01 -1.22707281E-01
 -1.15219768E-01  0.00000000E+00  1.00000000E+00
Core Hamiltonian Matrix                    R   N=          28
 -3.33152360E+00 -3.94941462E-01 -3.22765287E+01 -1.11496741E+00 -7.50761648E+00
 -8.90500253E+00 -6.76926449E-01 -7.23400042E-07 -9.12229033E-06 -7.12458191E+00
  6.49021409E-01  7.60092495E-03  9.58497906E-02 -3.85586638E-07 -7.12054076E+00
  0.00000000E+00  0.00000000E+00  0.00000000E+00  0.00000000E+00  0.00000000E+00
 -7.09052293E+00 -3.06773748E-01 -3.94941489E-01 -1.11496747E+00  6.76802909E-01
  6.49150310E-01  0.00000000E+00 -3.33152365E+00
Orbital Coefficients CCMAN2 Alpha          R   N=          49
 -1.83929363E-03  9.94957163E-01  2.06798891E-02  1.01941812E-07 -1.07131758E-03