Jobname.Temp
SP        R                             STO-3G              
Number of atoms                            I                3
Charge                                     I                0
Multiplicity                               I                1
Number of electrons                        I               10
Number of alpha electrons                  I                5
Number of beta electrons                   I                5
Atomic numbers                             I   N=           3
           8           1           1
Current cartesian coordinates              R   N=           9
 -6.03976302E-17  3.58485251E-17  3.70215356E-01 -2.39069879E+00 -2.56927637E-16
 -1.48086142E+00  2.39069879E+00 -2.98605640E-17 -1.48086142E+00
Nuclear charges                            R   N=           3
  8.00000000E+00  1.00000000E+00  1.00000000E+00
Number of basis functions                  I                7
Number of contracted shells                I                4
Number of primitive shells                 I               12
Highest angular momentum                   I                1
Largest degree of contraction              I                3
Shell types                                I   N=           4
           0          -1           0           0
Number of primitives per shell             I   N=           4
           3           3           3           3
Shell to atom map                          I   N=           4
           1           1           2           3
Primitive exponents                        R   N=          12
  1.30709320E+02  2.38088610E+01  6.44360830E+00  5.03315130E+00  1.16959610E+00
  3.80389000E-01  3.42525091E+00  6.23913730E-01  1.68855400E-01  3.42525091E+00
  6.23913730E-01  1.68855400E-01
Contraction coefficients                   R   N=          12
  1.54328969E-01  5.35328136E-01  4.44634536E-01 -9.99672287E-02  3.99512825E-01
  7.00115461E-01  1.54328971E-01  5.35328142E-01  4.44634542E-01  1.54328971E-01
  5.35328142E-01  4.44634542E-01
P(S=P) Contraction coefficients            R   N=          12
  0.00000000E+00  0.00000000E+00  0.00000000E+00  1.55916268E-01  6.07683714E-01
  3.91957386E-01  0.00000000E+00  0.00000000E+00  0.00000000E+00  0.00000000E+00
  0.00000000E+00  0.00000000E+00
Coordinates of each shell                  R   N=          12
 -6.03976302E-17  3.58485251E-17  3.70215356E-01 -6.03976302E-17  3.58485251E-17
  3.70215356E-01 -2.39069879E+00 -2.56927637E-16 -1.48086142E+00  2.39069879E+00
 -2.98605640E-17 -1.48086142E+00
Overlap Matrix                             R   N=          28
  1.00000000E+00  2.36703937E-01  1.00000000E+00 -9.30374437E-34  0.00000000E+00
  1.00000000E+00 -3.42178517E-33  5.47882949E-33  0.00000000E+00  1.00000000E+00
 -1.56787865E-17  6.81391661E-17  0.00000000E+00  3.47184774E-49  1.00000000E+00
  1.23531594E-02  1.65744257E-01 -1.33194810E-01 -1.63116598E-17 -1.03130441E-01
  1.00000000E+00  1.23531594E-02  1.65744257E-01  1.33194810E-01 -3.66090019E-18
 -1.03130441E-01  4.67800528E-02  1.00000000E+00
Core Hamiltonian Matrix                    R   N=          28
 -3.22767265E+01 -7.50766330E+00 -8.90520002E+00  0.00000000E+00  0.00000000E+00
 -7.13079684E+00  0.00000000E+00  0.00000000E+00  0.00000000E+00 -7.09070146E+00
  6.80287658E-03  8.57858250E-02  0.00000000E+00  0.00000000E+00 -7.11473919E+00
 -3.95340866E-01 -1.11356684E+00  7.33938959E-01 -1.87811217E-18  5.79093143E-01
 -3.31469682E+00 -3.95340866E-01 -1.11356684E+00 -7.33938959E-01 -4.21513278E-19
  5.79093143E-01 -2.23637184E-01 -3.31469682E+00
Orbital Coefficients CCMAN2 Alpha          R   N=          49
 -9.94951681E-01 -2.07048866E-02 -1.45951319E-16 -3.46299826E-17  1.04488795E-03
  1.86846251E-03  1.86846251E-03  2.56596663E-01 -9.95102201E-01 -1.27142499E-15
  3.81147157E-16  1.00828760E-02 -7.92000243E-02 -7.92000243E-02 -4.88374224E-02
  2.39853932E-01 -6.99235083E-15  2.35828577E-15  7.03808660E-01 -4.32927248E-01
 -4.32927248E-01 -1.00680715E-16  1.35809405E-15  6.41888357E-01 -5.14876962E-15
  8.02057562E-15 -4.72857654E-01  4.72857654E-01 -1.18415949E-16  1.31948373E-16
 -3.49942915E-15 -1.00000000E+00  1.55257701E-15  1.82432318E-15 -3.28712736E-15
 -5.35903964E-02  2.69388762E-01  1.36925272E-14 -2.89055316E-16 -7.25604654E-01
 -5.67692684E-01 -5.67692684E-01 -1.26634814E-15  5.89805982E-15 -7.91606889E-01
  4.73158809E-17 -1.18308141E-14 -5.66765651E-01  5.66765651E-01
Orbital Coefficients CCMAN2 Beta           R   N=          49
  2.56596663E-01 -9.95102201E-01 -1.27142499E-15  3.81147157E-16  1.00828760E-02
 -7.92000243E-02 -7.92000243E-02 -4.88374224E-02  2.39853932E-01 -6.99235083E-15
  2.35828577E-15  7.03808660E-01 -4.32927248E-01 -4.32927248E-01 -1.00680715E-16
  1.35809405E-15  6.41888357E-01 -5.14876962E-15  8.02057562E-15 -4.72857654E-01
  4.72857654E-01 -1.18415949E-16  1.31948373E-16 -3.49942915E-15 -1.00000000E+00
  1.55257701E-15  1.82432318E-15 -3.28712736E-15 -5.35903964E-02  2.69388762E-01
  1.36925272E-14 -2.89055316E-16 -7.25604654E-01 -5.67692684E-01 -5.67692684E-01
 -1.26634814E-15  5.89805982E-15 -7.91606889E-01  4.73158809E-17 -1.18308141E-14
 -5.66765651E-01  5.66765651E-01 -9.94951681E-01 -2.07048866E-02 -1.45951319E-16
 -3.46299826E-17  1.04488795E-03  1.86846251E-03  1.86846251E-03
EOMEE transition A1 Excitation Energies    R   N=           1
  2.01848762E-01
Number of Active Occ                       I               10
Number of Active Vir                       I                4
Alpha Amplitudes                           R   N=           0
Alpha J Indexes                            I   N=           2
           0           0
Alpha I Indexes                            I   N=           0
EOMEE transition A2 Excitation Energies    R   N=           1
  1.12676829E-01
Number of Active Occ                       I               10
Number of Active Vir                       I                4
Alpha Amplitudes                           R   N=           2
 -6.04490353E-01 -6.04490353E-01
Alpha J Indexes                            I   N=           2
           0           2
Alpha I Indexes                            I   N=           2
          17          39
EOMEE transition B1 Excitation Energies    R   N=           1
  2.81943327E-01
Number of Active Occ                       I               10
Number of Active Vir                       I                4
Alpha Amplitudes                           R   N=           4
 -4.38110095E-01  4.13222478E-01 -4.38110095E-01  4.13222478E-01
Alpha J Indexes                            I   N=           2
           0           4
Alpha I Indexes                            I   N=           4
           9          12          31          34
EOMEE transition B2 Excitation Energies    R   N=           1
  8.04607727E-02
Number of Active Occ                       I               10
Number of Active Vir                       I                4
Alpha Amplitudes                           R   N=           2
  6.04869044E-01  6.04869044E-01
Alpha J Indexes                            I   N=           2
           0           2
Alpha I Indexes                            I   N=           2
          16          38
EOMEE transition A1 Excitation Energies    R   N=           1
  8.04226390E-02
Number of Active Occ                       I               10
Number of Active Vir                       I                4
Alpha Amplitudes                           R   N=           4
 -5.71061591E-01 -4.13682773E-01  5.71061591E-01  4.13682773E-01
Alpha J Indexes                            I   N=           2
           0           4
Alpha I Indexes                            I   N=           4
           8          13          30          35
EOMEE transition A2 Excitation Energies    R   N=           1
  1.01443354E-01
Number of Active Occ                       I               10
Number of Active Vir                       I                4
Alpha Amplitudes                           R   N=           2
 -6.25519028E-01  6.25519028E-01
Alpha J Indexes                            I   N=           2
           0           2
Alpha I Indexes                            I   N=           2
          17          39
EOMEE transition B1 Excitation Energies    R   N=           1
  1.38595162E-01
Number of Active Occ                       I               10
Number of Active Vir                       I                4
Alpha Amplitudes                           R   N=           4
 -4.67308987E-01 -4.66504996E-01  4.67308987E-01  4.66504996E-01
Alpha J Indexes                            I   N=           2
           0           4
Alpha I Indexes                            I   N=           4
           9          12          31          34
EOMEE transition B2 Excitation Energies    R   N=           1
  6.98408133E-02
Number of Active Occ                       I               10
Number of Active Vir                       I                4
Alpha Amplitudes                           R   N=           2
  6.33467575E-01 -6.33467575E-01
Alpha J Indexes                            I   N=           2
           0           2
Alpha I Indexes                            I   N=           2
          16          38
Number of independent functions            I                7
Alpha MO coefficients                      R   N=          49
 -9.94951681E-01 -2.07048866E-02 -1.45951319E-16 -3.46299826E-17  1.04488795E-03
  1.86846251E-03  1.86846251E-03  2.56596663E-01 -9.95102201E-01 -1.27142499E-15
  3.81147157E-16  1.00828760E-02 -7.92000243E-02 -7.92000243E-02 -1.18415949E-16
  1.31948373E-16 -3.49942915E-15 -1.00000000E+00  1.55257701E-15  1.82432318E-15
 -3.28712736E-15 -1.00680715E-16  1.35809405E-15  6.41888357E-01 -5.14876962E-15
  8.02057562E-15 -4.72857654E-01  4.72857654E-01 -4.88374224E-02  2.39853932E-01
 -6.99235083E-15  2.35828577E-15  7.03808660E-01 -4.32927248E-01 -4.32927248E-01
 -5.35903964E-02  2.69388762E-01  1.36925272E-14 -2.89055316E-16 -7.25604654E-01
 -5.67692684E-01 -5.67692684E-01 -1.26634814E-15  5.89805982E-15 -7.91606889E-01
  4.73158809E-17 -1.18308141E-14 -5.66765651E-01  5.66765651E-01
Alpha Orbital Energies                     R   N=           7
 -2.03136101E+01 -1.13741834E+00 -4.03020169E-01 -3.79076025E-01 -3.52305954E-01
  2.05492295E-01  2.60820262E-01
Total SCF Density                          R   N=          28
  2.11824263E+00 -5.01962447E-01  2.13831087E+00  5.44762981E-17  1.46159512E-15
  8.98821903E-01  2.88281547E-16  1.12786957E-17  1.13725785E-15  1.99891987E+00
 -4.21508087E-02  2.04156902E-01  1.11949378E-15 -3.03956656E-16  9.43329504E-01
  1.26896362E-02 -1.14358387E-01 -4.15470664E-01 -1.26545926E-15 -4.06705531E-01
  9.13594991E-01  1.26896362E-02 -1.14358387E-01  4.15470664E-01  5.68774682E-16
 -4.06705531E-01 -1.19800309E-02  9.13594991E-01
Pure Switching                             I                1
Dipole_Data                                R   N=           3
 -2.22236499E-14  2.57394057E-16 -4.34799530E-01
Quadrupole_Data                            R   N=           6
 -5.02528624E+00 -1.26339015E-15 -6.40648325E+00  1.33059880E-14  2.08441323E-16
 -5.48330492E+00
Octapole_Data                              R   N=          10
 -4.19958547E-14  1.14946662E-16 -3.55121805E-15  3.19416114E-16 -1.46677920E-01
 -1.47473523E-16  4.04350950E-01 -1.58570215E-14  1.89933458E-16  1.32915007E+00
Hexadecapole_Data                          R   N=          15
 -1.75314248E+01 -9.33172382E-16 -3.80438541E+00 -9.09767738E-16 -3.63659642E+00
  3.29694206E-14 -4.37298441E-17  2.15464453E-15 -2.92359789E-16 -4.21724809E+00
 -3.27259841E-16 -2.33601337E+00  1.76403697E-14 -2.34310646E-16 -9.93143320E+00
