Jobname.Temp
SP        R                             6-31G               
Number of atoms                            I                2
Charge                                     I                0
Multiplicity                               I                1
Number of electrons                        I                2
Number of alpha electrons                  I                1
Number of beta electrons                   I                1
Atomic numbers                             I   N=           2
           1           1
Current cartesian coordinates              R   N=           6
  0.00000000E+00  0.00000000E+00 -1.60626721E+00  0.00000000E+00  0.00000000E+00
  1.60626721E+00
Nuclear charges                            R   N=           2
  1.00000000E+00  1.00000000E+00
Number of basis functions                  I                4
Number of contracted shells                I                4
Number of primitive shells                 I                8
Highest angular momentum                   I                0
Largest degree of contraction              I                3
Shell types                                I   N=           4
           0           0           0           0
Number of primitives per shell             I   N=           4
           3           1           3           1
Shell to atom map                          I   N=           4
           1           1           2           2
Primitive exponents                        R   N=           8
  1.87311370E+01  2.82539370E+00  6.40121700E-01  1.61277800E-01  1.87311370E+01
  2.82539370E+00  6.40121700E-01  1.61277800E-01
Contraction coefficients                   R   N=           8
  3.34945995E-02  2.34726947E-01  8.13757318E-01  1.00000000E+00  3.34945995E-02
  2.34726947E-01  8.13757318E-01  1.00000000E+00
Coordinates of each shell                  R   N=          12
  0.00000000E+00  0.00000000E+00 -1.60626721E+00  0.00000000E+00  0.00000000E+00
 -1.60626721E+00  0.00000000E+00  0.00000000E+00  1.60626721E+00  0.00000000E+00
  0.00000000E+00  1.60626721E+00
Overlap Matrix                             R   N=          10
  1.00000000E+00  6.58292049E-01  1.00000000E+00  2.55632651E-02  1.69897828E-01
  1.00000000E+00  1.69897828E-01  4.35080644E-01  6.58292049E-01  1.00000000E+00
Core Hamiltonian Matrix                    R   N=          10
 -5.68833152E-01 -6.87481157E-01 -7.07142371E-01 -6.54134165E-02 -2.29587354E-01
 -5.68833152E-01 -2.29587354E-01 -3.88149091E-01 -6.87481157E-01 -7.07142371E-01
Orbital Coefficients CCMAN2 Alpha          R   N=          16
 -2.28774545E-01 -4.41071083E-01 -2.28774545E-01 -4.41071083E-01  2.24596785E-01
  7.20034316E-01 -2.24596785E-01 -7.20034316E-01  9.24674551E-01 -1.02147047E+00
 -9.24674551E-01  1.02147047E+00 -9.27748500E-01  6.76727579E-01 -9.27748500E-01
  6.76727579E-01
Orbital Coefficients CCMAN2 Beta           R   N=          16
  2.24596785E-01  7.20034316E-01 -2.24596785E-01 -7.20034316E-01  9.24674551E-01
 -1.02147047E+00 -9.24674551E-01  1.02147047E+00 -9.27748500E-01  6.76727579E-01
 -9.27748500E-01  6.76727579E-01 -2.28774545E-01 -4.41071083E-01 -2.28774545E-01
 -4.41071083E-01
EOMEE transition A Excitation Energies     R   N=           3
  3.64591869E-01  4.39754178E-01  1.03141057E+00
Number of Active Occ                       I                2
Number of Active Vir                       I                6
Alpha Amplitudes                           R   N=           6
  7.01748071E-01  7.01748071E-01 -1.01573935E-01 -1.01573935E-01 -5.89299226E-01
 -5.89299226E-01
Alpha J Indexes                            I   N=           4
           0           2           4           6
Alpha I Indexes                            I   N=           6
           0           9           2          11           1          10
EOMEE transition A Excitation Energies     R   N=           3
  6.05012618E-02  1.01825896E+00  1.02386755E+00
Number of Active Occ                       I                2
Number of Active Vir                       I                6
Alpha Amplitudes                           R   N=           6
  7.02348847E-01 -7.02348847E-01  6.36116572E-01 -6.36116572E-01 -6.31909041E-01
  6.31909041E-01
Alpha J Indexes                            I   N=           4
           0           2           4           6
Alpha I Indexes                            I   N=           6
           0           9           1          10           2          11
Number of independent functions            I                4
Alpha MO coefficients                      R   N=          16
 -2.28774545E-01 -4.41071083E-01 -2.28774545E-01 -4.41071083E-01  2.24596785E-01
  7.20034316E-01 -2.24596785E-01 -7.20034316E-01  9.24674551E-01 -1.02147047E+00
 -9.24674551E-01  1.02147047E+00 -9.27748500E-01  6.76727579E-01 -9.27748500E-01
  6.76727579E-01
Alpha Orbital Energies                     R   N=           4
 -4.10886350E-01  1.82982099E-02  1.01150924E+00  1.04411543E+00
Total SCF Density                          R   N=          10
  1.63097437E-01  2.45931953E-01  3.73836673E-01  7.86113465E-02  1.30114935E-01
  1.63097437E-01  1.30114935E-01  2.13876993E-01  2.45931953E-01  3.73836673E-01
Pure Switching                             I                1
Dipole_Data                                R   N=           3
  0.00000000E+00  0.00000000E+00  5.64381055E-15
Quadrupole_Data                            R   N=           6
 -2.64884548E+00  0.00000000E+00 -2.64884548E+00  0.00000000E+00  0.00000000E+00
 -1.80427116E+00
Octapole_Data                              R   N=          10
  0.00000000E+00  0.00000000E+00  0.00000000E+00  0.00000000E+00  8.19846982E-16
  0.00000000E+00  8.19846982E-16  0.00000000E+00  0.00000000E+00  6.63779725E-15
Hexadecapole_Data                          R   N=          15
 -2.86606676E+00  0.00000000E+00 -9.55355585E-01  0.00000000E+00 -2.86606676E+00
  0.00000000E+00  0.00000000E+00  0.00000000E+00  0.00000000E+00 -2.55570055E+00
  0.00000000E+00 -2.55570055E+00  0.00000000E+00  0.00000000E+00 -1.18083449E+01
