Jobname.Temp
SP        R                             STO-3G              
Number of atoms                            I                4
Charge                                     I                0
Multiplicity                               I                1
Number of electrons                        I                4
Number of alpha electrons                  I                2
Number of beta electrons                   I                2
Atomic numbers                             I   N=           4
           1           1           1           1
Current cartesian coordinates              R   N=          12
  1.79523982E+00 -1.41729459E+00 -2.19853470E-16  1.79523982E+00  1.41729459E+00
  5.26084240E-17 -1.79523982E+00 -1.41729459E+00 -5.26084240E-17 -1.79523982E+00
  1.41729459E+00  2.19853470E-16
Nuclear charges                            R   N=           4
  1.00000000E+00  1.00000000E+00  1.00000000E+00  1.00000000E+00
Number of basis functions                  I                4
Number of contracted shells                I                4
Number of primitive shells                 I               12
Highest angular momentum                   I                0
Largest degree of contraction              I                3
Shell types                                I   N=           4
           0           0           0           0
Number of primitives per shell             I   N=           4
           3           3           3           3
Shell to atom map                          I   N=           4
           1           2           3           4
Primitive exponents                        R   N=          12
  3.42525091E+00  6.23913730E-01  1.68855400E-01  3.42525091E+00  6.23913730E-01
  1.68855400E-01  3.42525091E+00  6.23913730E-01  1.68855400E-01  3.42525091E+00
  6.23913730E-01  1.68855400E-01
Contraction coefficients                   R   N=          12
  1.54328971E-01  5.35328142E-01  4.44634542E-01  1.54328971E-01  5.35328142E-01
  4.44634542E-01  1.54328971E-01  5.35328142E-01  4.44634542E-01  1.54328971E-01
  5.35328142E-01  4.44634542E-01
Coordinates of each shell                  R   N=          12
  1.79523982E+00 -1.41729459E+00 -2.19853470E-16  1.79523982E+00  1.41729459E+00
  5.26084240E-17 -1.79523982E+00 -1.41729459E+00 -5.26084240E-17 -1.79523982E+00
  1.41729459E+00  2.19853470E-16
Overlap Matrix                             R   N=          10
  1.00000000E+00  2.56786336E-01  1.00000000E+00  1.40169181E-01  5.73703242E-02
  1.00000000E+00  5.73703242E-02  1.40169181E-01  2.56786336E-01  1.00000000E+00
Core Hamiltonian Matrix                    R   N=          10
 -1.31487134E+00 -4.55389556E-01 -1.31487134E+00 -2.50081157E-01 -1.11528840E-01
 -1.31487134E+00 -1.11528840E-01 -2.50081157E-01 -4.55389556E-01 -1.31487134E+00
Orbital Coefficients CCMAN2 Alpha          R   N=          16
 -4.14609400E-01 -4.14609400E-01 -4.14609400E-01 -4.14609400E-01 -4.85815557E-01
 -4.85815557E-01  4.85815557E-01  4.85815557E-01  6.15264140E-01 -6.15264140E-01
 -6.15264140E-01  6.15264140E-01 -5.50144391E-01  5.50144391E-01 -5.50144391E-01
  5.50144391E-01
Orbital Coefficients CCMAN2 Beta           R   N=          16
 -4.85815557E-01 -4.85815557E-01  4.85815557E-01  4.85815557E-01  6.15264140E-01
 -6.15264140E-01 -6.15264140E-01  6.15264140E-01 -5.50144391E-01  5.50144391E-01
 -5.50144391E-01  5.50144391E-01 -4.14609400E-01 -4.14609400E-01 -4.14609400E-01
 -4.14609400E-01
EOMEE transition Ag Excitation Energies    R   N=           1
  1.71186637E-01
Number of Active Occ                       I                4
Number of Active Vir                       I                4
Alpha Amplitudes                           R   N=           0
Alpha J Indexes                            I   N=           2
           0           0
Alpha I Indexes                            I   N=           0
EOMEE transition B1g Excitation Energies   R   N=           1
  4.05736748E-01
Number of Active Occ                       I                4
Number of Active Vir                       I                4
Alpha Amplitudes                           R   N=           2
 -7.05699802E-01 -7.05699802E-01
Alpha J Indexes                            I   N=           2
           0           2
Alpha I Indexes                            I   N=           2
           5          15
EOMEE transition B2u Excitation Energies   R   N=           1
  5.21326639E-01
Number of Active Occ                       I                4
Number of Active Vir                       I                4
Alpha Amplitudes                           R   N=           4
 -5.28076075E-01 -4.70250634E-01 -5.28076075E-01 -4.70250634E-01
Alpha J Indexes                            I   N=           2
           0           4
Alpha I Indexes                            I   N=           4
           1           4          11          14
EOMEE transition B3u Excitation Energies   R   N=           1
  6.05774541E-01
Number of Active Occ                       I                4
Number of Active Vir                       I                4
Alpha Amplitudes                           R   N=           0
Alpha J Indexes                            I   N=           2
           0           0
Alpha I Indexes                            I   N=           0
EOMEE transition Ag Excitation Energies    R   N=           1
  6.80321257E-01
Number of Active Occ                       I                4
Number of Active Vir                       I                4
Alpha Amplitudes                           R   N=           0
Alpha J Indexes                            I   N=           2
           0           0
Alpha I Indexes                            I   N=           0
EOMEE transition B1g Excitation Energies   R   N=           1
  6.36140441E-02
Number of Active Occ                       I                4
Number of Active Vir                       I                4
Alpha Amplitudes                           R   N=           4
  3.33524934E-01 -6.23507112E-01 -3.33524934E-01  6.23507112E-01
Alpha J Indexes                            I   N=           2
           0           4
Alpha I Indexes                            I   N=           4
           0           5          10          15
EOMEE transition B2u Excitation Energies   R   N=           1
  1.18762463E-01
Number of Active Occ                       I                4
Number of Active Vir                       I                4
Alpha Amplitudes                           R   N=           4
  4.89938284E-01 -5.09863195E-01 -4.89938284E-01  5.09863195E-01
Alpha J Indexes                            I   N=           2
           0           4
Alpha I Indexes                            I   N=           4
           1           4          11          14
EOMEE transition B3u Excitation Energies   R   N=           1
  1.86431695E-01
Number of Active Occ                       I                4
Number of Active Vir                       I                4
Alpha Amplitudes                           R   N=           0
Alpha J Indexes                            I   N=           2
           0           0
Alpha I Indexes                            I   N=           0
Number of independent functions            I                4
Alpha MO coefficients                      R   N=          16
 -4.14609400E-01 -4.14609400E-01 -4.14609400E-01 -4.14609400E-01 -4.85815557E-01
 -4.85815557E-01  4.85815557E-01  4.85815557E-01 -5.50144391E-01  5.50144391E-01
 -5.50144391E-01  5.50144391E-01  6.15264140E-01 -6.15264140E-01 -6.15264140E-01
  6.15264140E-01
Alpha Orbital Energies                     R   N=           4
 -4.17731482E-01 -2.74754394E-01  1.65360173E-01  2.98830766E-01
Total SCF Density                          R   N=          10
  8.85927492E-01  4.97324815E-01  8.85927492E-01 -5.50540497E-02 -1.03133945E-01
  8.85927492E-01 -1.03133945E-01 -5.50540497E-02  4.97324815E-01  8.85927492E-01
Pure Switching                             I                1
Dipole_Data                                R   N=           3
 -3.67016552E-15 -1.07496954E-14 -9.23239496E-31
Quadrupole_Data                            R   N=           6
 -3.84770884E+00 -8.74336387E-15 -2.58870604E+00  9.21505137E-18  1.02000161E-16
 -3.64987665E+00
Octapole_Data                              R   N=          10
 -6.63482660E-15 -1.20260687E-14 -2.21181943E-15 -1.14482247E-14 -1.08759487E-30
  3.44277099E-31 -7.61617983E-31 -5.52250189E-16 -1.98294315E-15 -4.63331314E-31
Hexadecapole_Data                          R   N=          15
 -2.33680943E+01 -9.72036634E-15 -5.23048655E+00 -9.05830100E-15 -1.28783052E+01
  4.78523588E-16 -8.31918986E-17  1.14920384E-16 -4.41030057E-16 -4.36498990E+00
 -1.10484315E-15 -2.76333247E+00  4.69236473E-16 -5.06436662E-16 -3.02122436E+00
