                  Welcome to Q-Chem
     A Quantum Leap Into The Future Of Chemistry


 Q-Chem 5.4 (devel), Q-Chem, Inc., Pleasanton, CA (2021)

 E. Epifanovsky,  A. T. B. Gilbert,  Xintian Feng,  Joonho Lee,  Yuezhi Mao,  
 N. Mardirossian,  P. Pokhilko,  A. White,  M. Wormit,  M. P. Coons,  
 A. L. Dempwolff,  Zhengting Gan,  D. Hait,  P. R. Horn,  L. D. Jacobson,  
 I. Kaliman,  J. Kussmann,  A. W. Lange,  Ka Un Lao,  D. S. Levine,  Jie Liu,  
 S. C. McKenzie,  A. F. Morrison,  K. Nanda,  F. Plasser,  D. R. Rehn,  
 M. L. Vidal,  Zhi-Qiang You,  Ying Zhu,  B. Alam,  B. Albrecht,  
 A. Aldossary,  E. Alguire,  J. H. Andersen,  D. Barton,  K. Begam,  A. Behn,  
 Y. A. Bernard,  E. J. Berquist,  H. Burton,  A. Carreras,  K. Carter-Fenk,  
 R. Chakraborty,  A. D. Chien,  K. D. Closser,  V. Cofer-Shabica,  
 S. Dasgupta,  Jia Deng,  M. de Wergifosse,  M. Diedenhofen,  Hainam Do,  
 S. Ehlert,  Po-Tung Fang,  S. Fatehi,  Qingguo Feng,  T. Friedhoff,  
 J. Gayvert,  Qinghui Ge,  G. Gidofalvi,  M. Goldey,  J. Gomes,  
 C. Gonzalez-Espinoza,  S. Gulania,  A. Gunina,  M. W. D. Hanson-Heine,  
 P. H. P. Harbach,  A. W. Hauser,  M. F. Herbst,  M. Hernandez Vera,  
 M. Hodecker,  Z. C. Holden,  S. Houck,  Xunkun Huang,  Kerwin Hui,  
 B. C. Huynh,  M. Ivanov,  Hyunjun Ji,  Hanjie Jiang,  B. Kaduk,  S. Kaehler,  
 K. Khistyaev,  Jaehoon Kim,  P. Klunzinger,  Z. Koczor-Benda,  
 Joong Hoon Koh,  D. Kosenkov,  L. Koulias,  T. Kowalczyk,  C. M. Krauter,  
 K. Kue,  A. Kunitsa,  T. Kus,  A. Landau,  K. V. Lawler,  D. Lefrancois,  
 S. Lehtola,  Rain Li,  Yi-Pei Li,  Jiashu Liang,  M. Liebenthal,  
 Hung-Hsuan Lin,  You-Sheng Lin,  Fenglai Liu,  Kuan-Yu Liu,  
 M. Loipersberger,  A. Luenser,  A. Manjanath,  P. Manohar,  E. Mansoor,  
 S. F. Manzer,  Shan-Ping Mao,  A. V. Marenich,  T. Markovich,  S. Mason,  
 S. A. Maurer,  P. F. McLaughlin,  M. F. S. J. Menger,  J.-M. Mewes,  
 S. A. Mewes,  P. Morgante,  J. W. Mullinax,  K. J. Oosterbaan,  G. Paran,  
 Alexander C. Paul,  Suranjan K. Paul,  F. Pavosevic,  Zheng Pei,  S. Prager,  
 E. I. Proynov,  E. Ramos,  B. Rana,  A. E. Rask,  A. Rettig,  R. M. Richard,  
 F. Rob,  E. Rossomme,  T. Scheele,  M. Scheurer,  M. Schneider,  
 N. Sergueev,  S. M. Sharada,  W. Skomorowski,  D. W. Small,  C. J. Stein,  
 Yu-Chuan Su,  E. J. Sundstrom,  Zhen Tao,  J. Thirman,  T. Tsuchimochi,  
 N. M. Tubman,  S. P. Veccham,  O. Vydrov,  J. Wenzel,  J. Witte,  A. Yamada,  
 Kun Yao,  S. Yeganeh,  S. R. Yost,  A. Zech,  Igor Ying Zhang,  Xing Zhang,  
 Yu Zhang,  D. Zuev,  A. Aspuru-Guzik,  A. T. Bell,  N. A. Besley,  
 K. B. Bravaya,  B. R. Brooks,  D. Casanova,  Jeng-Da Chai,  S. Coriani,  
 C. J. Cramer,  A. E. DePrince, III,  R. A. DiStasio Jr.,  A. Dreuw,  
 B. D. Dunietz,  T. R. Furlani,  W. A. Goddard III,  S. Grimme,  
 S. Hammes-Schiffer,  T. Head-Gordon,  W. J. Hehre,  Chao-Ping Hsu,  
 T.-C. Jagau,  Yousung Jung,  A. Klamt,  Jing Kong,  D. S. Lambrecht,  
 WanZhen Liang,  N. J. Mayhall,  C. W. McCurdy,  J. B. Neaton,  
 C. Ochsenfeld,  J. A. Parkhill,  R. Peverati,  V. A. Rassolov,  Yihan Shao,  
 L. V. Slipchenko,  T. Stauch,  R. P. Steele,  J. E. Subotnik,  
 A. J. W. Thom,  A. Tkatchenko,  D. G. Truhlar,  T. Van Voorhis,  
 T. A. Wesolowski,  K. B. Whaley,  H. L. Woodcock III,  P. M. Zimmerman,  
 S. Faraji,  P. M. W. Gill,  M. Head-Gordon,  J. M. Herbert,  A. I. Krylov

 Additional authors for Version 5.4.1: 
 S. Kotaru,  Shaozhi Li,  Xiangyuan Li,  F. Matz,  A. Molle,  Haisheng Ren,  
 Yingli Su,  Hung-Yi Tsai,  C. Utku,  Fang Wang

 Contributors to earlier versions of Q-Chem not listed above: 
 R. D. Adamson,  B. Austin,  R. Baer,  J. Baker,  G. J. O. Beran,  
 K. Brandhorst,  S. T. Brown,  E. F. C. Byrd,  A. K. Chakraborty,  
 G. K. L. Chan,  Chun-Min Chang,  Yunqing Chen,  C.-L. Cheng,  
 Siu Hung Chien,  D. M. Chipman,  D. L. Crittenden,  H. Dachsel,  
 R. J. Doerksen,  A. D. Dutoi,  R. G. Edgar,  J. Fosso-Tande,  
 L. Fusti-Molnar,  D. Ghosh,  A. Ghysels,  A. Golubeva-Zadorozhnaya,  
 J. Gonthier,  M. S. Gordon,  S. R. Gwaltney,  G. Hawkins,  J. E. Herr,  
 A. Heyden,  S. Hirata,  E. G. Hohenstein,  G. Kedziora,  F. J. Keil,  
 C. Kelley,  Jihan Kim,  R. A. King,  R. Z. Khaliullin,  P. P. Korambath,  
 W. Kurlancheek,  A. Laurent,  A. M. Lee,  M. S. Lee,  S. V. Levchenko,  
 Ching Yeh Lin,  D. Liotard,  E. Livshits,  R. C. Lochan,  I. Lotan,  
 L. A. Martinez-Martinez,  P. E. Maslen,  N. Nair,  D. P. O'Neill,  
 D. Neuhauser,  E. Neuscamman,  C. M. Oana,  R. Olivares-Amaya,  R. Olson,  
 T. M. Perrine,  B. Peters,  P. A. Pieniazek,  A. Prociuk,  Y. M. Rhee,  
 J. Ritchie,  M. A. Rohrdanz,  E. Rosta,  N. J. Russ,  H. F. Schaefer III,  
 M. W. Schmidt,  N. E. Schultz,  S. Sharma,  N. Shenvi,  C. D. Sherrill,  
 A. C. Simmonett,  A. Sodt,  T. Stein,  D. Stuck,  K. S. Thanthiriwatte,  
 V. Vanovschi,  L. Vogt,  Tao Wang,  A. Warshel,  M. A. Watson,  
 C. F. Williams,  Q. Wu,  X. Xu,  Jun Yang,  W. Zhang,  Yan Zhao

 Please cite Q-Chem as follows:
 Y. Shao et al., Mol. Phys. 113, 184-215 (2015)
 DOI: 10.1080/00268976.2014.952696

 Q-Chem 5.4.1 for Intel X86 EM64T Linux

 Parts of Q-Chem use Armadillo 9.900.5 (Nocturnal Misbehaviour).
 http://arma.sourceforge.net/

 Q-Chem begins on Thu Aug 11 11:27:58 2022  

orc34
 Host: 0

     Scratch files written to /scratch/yongbin/qchem48874//
 Processing $rem in /home/users/yongbin/software/yongbin_quantum/config/preferences:
 Processing $rem in /home/users/yongbin/.qchemrc:

 Checking the input file for inconsistencies... 	...done.

--------------------------------------------------------------
User input:
--------------------------------------------------------------
$comment
Hydrogen molecule
$end

$molecule
0 1
  Li        0.0000000000    0.0000000000    0.0000000000
  H         0.0000000000    0.0000000000    1.7000000000
$end

$rem
   n_frozen_core = 0
   print_qis = true
   BASIS                = sto-3g
   SYMMETRY             = false
   CC_SYMMETRY          = false
   METHOD               = eom-ccsd
   EE_SINGLETS          = [3]  ! Compute two EOM-EE singlet excited states
   EE_TRIPLETS          = [3]  ! Compute two EOM-EE triplet excited states
   CC_REF_PROP          = true ! Compute ground state properties
   CC_EOM_PROP          = true ! Compute excited state properties
   CC_OSFNO             = true
   GUI                  = 2
$end                  
--------------------------------------------------------------
 ----------------------------------------------------------------
             Standard Nuclear Orientation (Angstroms)
    I     Atom           X                Y                Z
 ----------------------------------------------------------------
    1      Li      0.0000000000     0.0000000000    -0.4250000000
    2      H       0.0000000000     0.0000000000     1.2750000000
 ----------------------------------------------------------------
 Molecular Point Group                 C*v   NOp =***
 Largest Abelian Subgroup              C2v   NOp =  1
 Nuclear Repulsion Energy =           0.93384214 hartrees
 There are        2 alpha and        2 beta electrons
 Requested basis set is STO-3G
 There are 3 shells and 6 basis functions
 Total memory of 2000 MB is distributed as follows: 
   MEM_STATIC is set to 192 MB
   QALLOC/CCMAN JOB total memory use is  1808 MB
 Warning: actual memory use might exceed 2000 MB

 Total QAlloc Memory Limit   2000 MB
 Mega-Array Size       188 MB
 MEM_STATIC part       192 MB

                       Distance Matrix (Angstroms)
             Li(  1)
   H (  2)  1.700000

 A cutoff of  1.0D-14 yielded      6 shell pairs
 There are        27 function pairs
 Smallest overlap matrix eigenvalue = 3.76E-01

 Scale SEOQF with 1.000000e+00/1.000000e+00/1.000000e+00

 Standard Electronic Orientation quadrupole field applied
 Nucleus-field energy     =    -0.0000000023 hartrees
 Guess from superposition of atomic densities
 Warning:  Energy on first SCF cycle will be non-variational
 SAD guess density has 4.000000 electrons

 -----------------------------------------------------------------------
  General SCF calculation program by
  Eric Jon Sundstrom, Paul Horn, Yuezhi Mao, Dmitri Zuev, Alec White,
  David Stuck, Shaama M.S., Shane Yost, Joonho Lee, David Small,
  Daniel Levine, Susi Lehtola, Hugh Burton, Evgeny Epifanovsky,
  Bang C. Huynh
 -----------------------------------------------------------------------
 Hartree-Fock
 using 16 threads for integral computing
 -------------------------------------------------------
 OpenMP Integral computing Module                
 Release: version 1.0, May 2013, Q-Chem Inc. Pittsburgh 
 -------------------------------------------------------
 A restricted SCF calculation will be
 performed using DIIS
 SCF converges when DIIS error is below 1.0e-08
 ---------------------------------------
  Cycle       Energy         DIIS error
 ---------------------------------------
    1      -7.5618488455      4.82e-02  
    2      -7.8477595566      2.47e-02  
    3      -7.8560604547      5.40e-03  
    4      -7.8569619733      1.88e-03  
    5      -7.8571444622      1.16e-04  
    6      -7.8571449568      9.54e-06  
    7      -7.8571449603      3.60e-07  
    8      -7.8571449603      3.61e-08  
    9      -7.8571449603      2.08e-09  Convergence criterion met
 ---------------------------------------
 SCF time:   CPU 1.06s  wall 0.00s 
 SCF   energy in the final basis set =       -7.8571449603
 Total energy in the final basis set =       -7.8571449603


 ------------------------------------------------------------------------------

   CCMAN2: suite of methods based on coupled cluster
           and equation of motion theories.

   Components:
   * libvmm-1.3-trunk
     by Evgeny Epifanovsky, Ilya Kaliman.
   * libtensor-2.5-trunk
     by Evgeny Epifanovsky, Michael Wormit, Dmitry Zuev, Sam Manzer, 
        Ilya Kaliman.
   * libcc-2.5-trunk
     by Evgeny Epifanovsky, Arik Landau, Tomasz Kus, Kirill Khistyaev, 
        Dmitry Zuev, Prashant Manohar, Xintian Feng, Anna Krylov, 
        Matthew Goldey, Alec White, Thomas Jagau, Kaushik Nanda, 
        Anastasia Gunina, Alexander Kunitsa, Joonho Lee.

   CCMAN original authors:
   Anna I. Krylov, C. David Sherrill, Steven R. Gwaltney,
   Edward F. C. Byrd (2000)
   Sergey V. Levchenko, Lyudmila V. Slipchenko, Tao Wang,
   Ana-Maria C. Cristian (2003)
   Piotr A. Pieniazek, C. Melania Oana, Evgeny Epifanovsky (2007)
   Prashant Manohar (2009)

 ------------------------------------------------------------------------------


 Allocating and initializing 1808MB of RAM...
 Calculation will run on 16 cores.


 Occupation and symmetry of molecular orbitals

 Point group: C1 (1 irreducible representation).

                           A     All 
 -------------------------------------
 All molecular orbitals:
  - Alpha                  6     6   
  - Beta                   6     6   
 -------------------------------------
 Alpha orbitals:
  - Frozen occupied        0     0   
  - Active occupied        2     2   
  - Active virtual         4     4   
  - Frozen virtual         0     0   
 -------------------------------------
 Beta orbitals:
  - Frozen occupied        0     0   
  - Active occupied        2     2   
  - Active virtual         4     4   
  - Frozen virtual         0     0   
 -------------------------------------

 Import integrals:   CPU 0.00 s  wall 0.00 s

 Import integrals:   CPU 0.10 s  wall 0.04 s

 Run QIS:   CPU 0.01 s  wall 0.01 s

 MP2 amplitudes:   CPU 0.00 s  wall 0.00 s

Running a double precision version
           CCSD T amplitudes will be solved using DIIS.

           Start     Size      MaxIter   EConv     TConv     
           3         7         100       1.00e-06  1.00e-04  
 ------------------------------------------------------------------------------
           Energy (a.u.)   Ediff      Tdiff       Comment
 ------------------------------------------------------------------------------
            -7.87093010                           
     1      -7.87584300   4.91e-03   1.25e-01     
     2      -7.87778246   1.94e-03   4.07e-02     
     3      -7.87858812   8.06e-04   1.55e-02     
     4      -7.87927180   6.84e-04   1.13e-02     Switched to DIIS steps.
     5      -7.87940220   1.30e-04   6.27e-03     
     6      -7.87942110   1.89e-05   8.93e-04     
     7      -7.87942210   1.00e-06   1.43e-04     
     8      -7.87942155   5.51e-07   1.33e-05     
 ------------------------------------------------------------------------------
            -7.87942155                           CCSD T converged.

End of double precision
 SCF energy                 = -7.85714496
 MP2 energy                 = -7.87093010
 CCSD correlation energy    = -0.02227659
 CCSD total energy          = -7.87942155

 CCSD  T1^2 = 0.0037  T2^2 = 0.0274  Leading amplitudes:

 Amplitude    Orbitals with energies
 -0.0428011425       2 (A) A                   ->    3 (A) A                    
                    -0.2766                          0.0772                     
 -0.0428011425       2 (A) B                   ->    3 (A) B                    
                    -0.2766                          0.0772                     
 -0.0044166010       2 (A) A                   ->    6 (A) A                    
                    -0.2766                          0.5190                     
 -0.0044166010       2 (A) B                   ->    6 (A) B                    
                    -0.2766                          0.5190                     

 Amplitude    Orbitals with energies
 -0.1238817948       2 (A) A       2 (A) B     ->    6 (A) A       6 (A) B      
                    -0.2766       -0.2766            0.5190        0.5190       
  0.1238817948       2 (A) A       2 (A) B     ->    6 (A) B       6 (A) A      
                    -0.2766       -0.2766            0.5190        0.5190       
  0.1238817948       2 (A) B       2 (A) A     ->    6 (A) A       6 (A) B      
                    -0.2766       -0.2766            0.5190        0.5190       
 -0.1238817948       2 (A) B       2 (A) A     ->    6 (A) B       6 (A) A      
                    -0.2766       -0.2766            0.5190        0.5190       

 Computing CCSD intermediates for later calculations in double precision
 Finished.

Running a double precision version
           CCSD Lambda amplitudes will be solved using DIIS.
           Start     Size      MaxIter   EConv     LConv     
           3         7         100       1.00e-06  1.00e-04  
 ------------------------------------------------------------------------------
            Enorm      Ldiff       Comment
 ------------------------------------------------------------------------------
     1     7.84e-03   6.34e-03     
     2     2.41e-03   2.21e-03     
     3     1.15e-03   1.02e-03     
     4     4.91e-04   8.11e-04     Switched to DIIS steps.
     5     2.28e-04   3.48e-04     
     6     3.66e-05   2.15e-04     
     7     1.92e-06   1.32e-05     
     8     2.18e-07   8.86e-07     
 ------------------------------------------------------------------------------
                                   CCSD Lambda converged.

 Computing density matrices in double precision...
 Computing density matrices... Done.
 Reference state properties
 Dipole moment (a.u.): 1.810622 (X 0.000000, Y 0.000000, Z -1.810622)
 R-squared (a.u.): 19.437621 (XX 4.133880, YY 4.133880, ZZ 11.169862)
 Gauge origin (a.u.): (0.000000, 0.000000, 0.000000)
 Angular momentum (a.u.) against gauge origin: 
 (X 0.000000i, Y 0.000000i, Z 0.000000i)
 Traces of the OPDMs: Tr(AA) 2.000000, Tr(BB) 2.000000
 Density matrix was written to a file for further analysis.

 CCSD calculation:   CPU 0.55 s  wall 0.40 s

        Solving for EOMEE-CCSD A singlet states.

Running a double precision version
        EOMEE-CCSD/MP2 right amplitudes will be solved using Davidson.
        Amplitudes will be solved using standard  algorithm.
     Hard-coded thresholds: 
     LinDepThresh=1.00e-15  NormThresh=1.00e-06  ReorthogonThresh=1.00e-02

      Roots     MaxVec    MaxIter   Precond   Conv      Shift    
      3         120       60        1         1.00e-05  0.00e+00  
 ------------------------------------------------------------------------------
      Iter ConvRoots NVecs ResNorm Current eigenvalues (eV)
 ------------------------------------------------------------------------------
      0    0      3     3.43e-02   5.1114   6.6844   6.6844   
      1    0      6     2.57e-02   3.7799   5.0575   5.0575   
      2    0      9     8.58e-04   3.4819   4.8552   4.8552   
      3    0      12    7.50e-05   3.4628   4.8550   4.8550   
      4    3      15    1.50e-06   3.4602*  4.8564*  4.8564*  

     Davidson procedure converged

 EOMEE transition 1/A
 Total energy = -7.75226008 a.u.  Excitation energy = 3.46023949 eV.
 R0^2 = 0.0064  R1^2 = 0.8724  R2^2 = 0.1276  Res^2 = 3.87e-06
 Conv-d = yes

 Amplitude    Transitions between orbitals
 -0.6593399750       2 (A) A                   ->    3 (A) A                    
 -0.6593399750       2 (A) B                   ->    3 (A) B                    
 -0.0379402414       2 (A) A                   ->    6 (A) A                    
 -0.0379402414       2 (A) B                   ->    6 (A) B                    
 -0.0037425885       1 (A) A                   ->    3 (A) A                    
 -0.0037425885       1 (A) B                   ->    3 (A) B                    
 -0.0020435026       1 (A) A                   ->    6 (A) A                    
 -0.0020435026       1 (A) B                   ->    6 (A) B                    
 -0.2582011722       2 (A) A       2 (A) B     ->    3 (A) A       3 (A) B      
  0.2582011722       2 (A) A       2 (A) B     ->    3 (A) B       3 (A) A      
  0.2582011722       2 (A) B       2 (A) A     ->    3 (A) A       3 (A) B      
 -0.2582011722       2 (A) B       2 (A) A     ->    3 (A) B       3 (A) A      
  0.1696826598       2 (A) A       2 (A) B     ->    3 (A) A       6 (A) B      
  0.1696826598       2 (A) A       2 (A) B     ->    6 (A) A       3 (A) B      
 -0.1696826598       2 (A) A       2 (A) B     ->    6 (A) B       3 (A) A      
 -0.1696826598       2 (A) A       2 (A) B     ->    3 (A) B       6 (A) A      
 -0.1696826598       2 (A) B       2 (A) A     ->    3 (A) A       6 (A) B      
 -0.1696826598       2 (A) B       2 (A) A     ->    6 (A) A       3 (A) B      
  0.1696826598       2 (A) B       2 (A) A     ->    3 (A) B       6 (A) A      
  0.1696826598       2 (A) B       2 (A) A     ->    6 (A) B       3 (A) A      
  0.0487994469       2 (A) A       2 (A) B     ->    6 (A) A       6 (A) B      
 -0.0487994469       2 (A) A       2 (A) B     ->    6 (A) B       6 (A) A      
 -0.0487994469       2 (A) B       2 (A) A     ->    6 (A) A       6 (A) B      
  0.0487994469       2 (A) B       2 (A) A     ->    6 (A) B       6 (A) A      
 -0.0202840453       2 (A) A       2 (A) B     ->    5 (A) A       5 (A) B      
  0.0202840453       2 (A) A       2 (A) B     ->    5 (A) B       5 (A) A      
  0.0202840453       2 (A) B       2 (A) A     ->    5 (A) A       5 (A) B      
 -0.0202840453       2 (A) B       2 (A) A     ->    5 (A) B       5 (A) A      
 -0.0202840452       2 (A) A       2 (A) B     ->    4 (A) A       4 (A) B      
  0.0202840452       2 (A) A       2 (A) B     ->    4 (A) B       4 (A) A      
  0.0202840452       2 (A) B       2 (A) A     ->    4 (A) A       4 (A) B      
 -0.0202840452       2 (A) B       2 (A) A     ->    4 (A) B       4 (A) A      
  0.0052997671       1 (A) A       2 (A) B     ->    6 (A) A       3 (A) B      
  0.0052997671       2 (A) A       1 (A) B     ->    3 (A) A       6 (A) B      
 -0.0052997671       1 (A) A       2 (A) B     ->    3 (A) B       6 (A) A      
 -0.0052997671       2 (A) A       1 (A) B     ->    6 (A) B       3 (A) A      
 -0.0052997671       2 (A) B       1 (A) A     ->    6 (A) A       3 (A) B      
 -0.0052997671       1 (A) B       2 (A) A     ->    3 (A) A       6 (A) B      
  0.0052997671       1 (A) B       2 (A) A     ->    6 (A) B       3 (A) A      
  0.0052997671       2 (A) B       1 (A) A     ->    3 (A) B       6 (A) A      
 -0.0042516432       1 (A) A       2 (A) A     ->    3 (A) A       6 (A) A      
  0.0042516432       1 (A) A       2 (A) A     ->    6 (A) A       3 (A) A      
  0.0042516432       2 (A) A       1 (A) A     ->    3 (A) A       6 (A) A      
 -0.0042516432       2 (A) A       1 (A) A     ->    6 (A) A       3 (A) A      
 -0.0042516432       1 (A) B       2 (A) B     ->    3 (A) B       6 (A) B      
  0.0042516432       1 (A) B       2 (A) B     ->    6 (A) B       3 (A) B      
  0.0042516432       2 (A) B       1 (A) B     ->    3 (A) B       6 (A) B      
 -0.0042516432       2 (A) B       1 (A) B     ->    6 (A) B       3 (A) B      
  0.0036811405       1 (A) A       2 (A) B     ->    3 (A) A       3 (A) B      
  0.0036811405       2 (A) A       1 (A) B     ->    3 (A) A       3 (A) B      
 -0.0036811405       1 (A) A       2 (A) B     ->    3 (A) B       3 (A) A      
 -0.0036811405       2 (A) A       1 (A) B     ->    3 (A) B       3 (A) A      
 -0.0036811405       2 (A) B       1 (A) A     ->    3 (A) A       3 (A) B      
 -0.0036811405       1 (A) B       2 (A) A     ->    3 (A) A       3 (A) B      
  0.0036811405       1 (A) B       2 (A) A     ->    3 (A) B       3 (A) A      
  0.0036811405       2 (A) B       1 (A) A     ->    3 (A) B       3 (A) A      
  0.0034971862       1 (A) A       1 (A) B     ->    3 (A) A       3 (A) B      
 -0.0034971862       1 (A) A       1 (A) B     ->    3 (A) B       3 (A) A      
 -0.0034971862       1 (A) B       1 (A) A     ->    3 (A) A       3 (A) B      
  0.0034971862       1 (A) B       1 (A) A     ->    3 (A) B       3 (A) A      
  0.0026037216       1 (A) A       2 (A) B     ->    5 (A) A       5 (A) B      
  0.0026037216       2 (A) A       1 (A) B     ->    5 (A) A       5 (A) B      
 -0.0026037216       1 (A) A       2 (A) B     ->    5 (A) B       5 (A) A      
 -0.0026037216       2 (A) A       1 (A) B     ->    5 (A) B       5 (A) A      
 -0.0026037216       2 (A) B       1 (A) A     ->    5 (A) A       5 (A) B      
 -0.0026037216       1 (A) B       2 (A) A     ->    5 (A) A       5 (A) B      
  0.0026037216       1 (A) B       2 (A) A     ->    5 (A) B       5 (A) A      
  0.0026037216       2 (A) B       1 (A) A     ->    5 (A) B       5 (A) A      
  0.0026037216       1 (A) A       2 (A) B     ->    4 (A) A       4 (A) B      
  0.0026037216       2 (A) A       1 (A) B     ->    4 (A) A       4 (A) B      
 -0.0026037216       1 (A) A       2 (A) B     ->    4 (A) B       4 (A) A      
 -0.0026037216       2 (A) A       1 (A) B     ->    4 (A) B       4 (A) A      
 -0.0026037216       2 (A) B       1 (A) A     ->    4 (A) A       4 (A) B      
 -0.0026037216       1 (A) B       2 (A) A     ->    4 (A) A       4 (A) B      
  0.0026037216       1 (A) B       2 (A) A     ->    4 (A) B       4 (A) A      
  0.0026037216       2 (A) B       1 (A) A     ->    4 (A) B       4 (A) A      
 -0.0014928190       1 (A) A       1 (A) B     ->    3 (A) A       6 (A) B      
 -0.0014928190       1 (A) A       1 (A) B     ->    6 (A) A       3 (A) B      
  0.0014928190       1 (A) A       1 (A) B     ->    6 (A) B       3 (A) A      
  0.0014928190       1 (A) A       1 (A) B     ->    3 (A) B       6 (A) A      
  0.0014928190       1 (A) B       1 (A) A     ->    3 (A) A       6 (A) B      
  0.0014928190       1 (A) B       1 (A) A     ->    6 (A) A       3 (A) B      
 -0.0014928190       1 (A) B       1 (A) A     ->    3 (A) B       6 (A) A      
 -0.0014928190       1 (A) B       1 (A) A     ->    6 (A) B       3 (A) A      
  0.0014133285       1 (A) A       2 (A) B     ->    6 (A) A       6 (A) B      
  0.0014133285       2 (A) A       1 (A) B     ->    6 (A) A       6 (A) B      
 -0.0014133285       1 (A) A       2 (A) B     ->    6 (A) B       6 (A) A      
 -0.0014133285       2 (A) A       1 (A) B     ->    6 (A) B       6 (A) A      
 -0.0014133285       2 (A) B       1 (A) A     ->    6 (A) A       6 (A) B      
 -0.0014133285       1 (A) B       2 (A) A     ->    6 (A) A       6 (A) B      
  0.0014133285       1 (A) B       2 (A) A     ->    6 (A) B       6 (A) A      
  0.0014133285       2 (A) B       1 (A) A     ->    6 (A) B       6 (A) A      
  0.0010640128       1 (A) A       2 (A) B     ->    3 (A) A       6 (A) B      
  0.0010640128       2 (A) A       1 (A) B     ->    6 (A) A       3 (A) B      
 -0.0010640128       1 (A) A       2 (A) B     ->    6 (A) B       3 (A) A      
 -0.0010640128       2 (A) A       1 (A) B     ->    3 (A) B       6 (A) A      
 -0.0010640128       2 (A) B       1 (A) A     ->    3 (A) A       6 (A) B      
 -0.0010640128       1 (A) B       2 (A) A     ->    6 (A) A       3 (A) B      
  0.0010640128       1 (A) B       2 (A) A     ->    3 (A) B       6 (A) A      
  0.0010640128       2 (A) B       1 (A) A     ->    6 (A) B       3 (A) A      
 -0.0005146414       1 (A) A       1 (A) B     ->    6 (A) A       6 (A) B      
  0.0005146414       1 (A) A       1 (A) B     ->    6 (A) B       6 (A) A      
  0.0005146414       1 (A) B       1 (A) A     ->    6 (A) A       6 (A) B      
 -0.0005146414       1 (A) B       1 (A) A     ->    6 (A) B       6 (A) A      
 -0.0001006808       1 (A) A       1 (A) B     ->    4 (A) A       4 (A) B      
  0.0001006808       1 (A) A       1 (A) B     ->    4 (A) B       4 (A) A      
  0.0001006808       1 (A) B       1 (A) A     ->    4 (A) A       4 (A) B      
 -0.0001006808       1 (A) B       1 (A) A     ->    4 (A) B       4 (A) A      
 -0.0001006808       1 (A) A       1 (A) B     ->    5 (A) A       5 (A) B      
  0.0001006808       1 (A) A       1 (A) B     ->    5 (A) B       5 (A) A      
  0.0001006808       1 (A) B       1 (A) A     ->    5 (A) A       5 (A) B      
 -0.0001006808       1 (A) B       1 (A) A     ->    5 (A) B       5 (A) A      

              Summary of significant orbitals:

               Number  Type             Irrep      Energy
               1       Occ  Alpha       1 (A)     -2.3514
               2       Occ  Alpha       2 (A)     -0.2766
               1       Occ  Beta        1 (A)     -2.3514
               2       Occ  Beta        2 (A)     -0.2766
               3       Vir  Alpha       3 (A)      0.0772
               4       Vir  Alpha       4 (A)      0.1639
               5       Vir  Alpha       5 (A)      0.1639
               6       Vir  Alpha       6 (A)      0.5190
               3       Vir  Beta        3 (A)      0.0772
               4       Vir  Beta        4 (A)      0.1639
               5       Vir  Beta        5 (A)      0.1639
               6       Vir  Beta        6 (A)      0.5190


 EOMEE transition 2/A
 Total energy = -7.70095245 a.u.  Excitation energy = 4.85639105 eV.
 R0^2 = 0.0000  R1^2 = 0.8743  R2^2 = 0.1257  Res^2 = 3.10e-07
 Conv-d = yes

 Amplitude    Transitions between orbitals
  0.6611440864       2 (A) A                   ->    5 (A) A                    
  0.6611440864       2 (A) B                   ->    5 (A) B                    
  0.0062828517       1 (A) A                   ->    5 (A) A                    
  0.0062828517       1 (A) B                   ->    5 (A) B                    
 -0.1999433937       2 (A) A       2 (A) B     ->    5 (A) A       6 (A) B      
 -0.1999433937       2 (A) A       2 (A) B     ->    6 (A) A       5 (A) B      
  0.1999433937       2 (A) A       2 (A) B     ->    6 (A) B       5 (A) A      
  0.1999433937       2 (A) A       2 (A) B     ->    5 (A) B       6 (A) A      
  0.1999433937       2 (A) B       2 (A) A     ->    5 (A) A       6 (A) B      
  0.1999433937       2 (A) B       2 (A) A     ->    6 (A) A       5 (A) B      
 -0.1999433937       2 (A) B       2 (A) A     ->    5 (A) B       6 (A) A      
 -0.1999433937       2 (A) B       2 (A) A     ->    6 (A) B       5 (A) A      
  0.1511059179       2 (A) A       2 (A) B     ->    3 (A) A       5 (A) B      
  0.1511059179       2 (A) A       2 (A) B     ->    5 (A) A       3 (A) B      
 -0.1511059179       2 (A) A       2 (A) B     ->    5 (A) B       3 (A) A      
 -0.1511059179       2 (A) A       2 (A) B     ->    3 (A) B       5 (A) A      
 -0.1511059179       2 (A) B       2 (A) A     ->    3 (A) A       5 (A) B      
 -0.1511059179       2 (A) B       2 (A) A     ->    5 (A) A       3 (A) B      
  0.1511059179       2 (A) B       2 (A) A     ->    3 (A) B       5 (A) A      
  0.1511059179       2 (A) B       2 (A) A     ->    5 (A) B       3 (A) A      
  0.0038174543       1 (A) A       2 (A) A     ->    5 (A) A       6 (A) A      
 -0.0038174543       1 (A) A       2 (A) A     ->    6 (A) A       5 (A) A      
 -0.0038174543       2 (A) A       1 (A) A     ->    5 (A) A       6 (A) A      
  0.0038174543       2 (A) A       1 (A) A     ->    6 (A) A       5 (A) A      
  0.0038174543       1 (A) B       2 (A) B     ->    5 (A) B       6 (A) B      
 -0.0038174543       1 (A) B       2 (A) B     ->    6 (A) B       5 (A) B      
 -0.0038174543       2 (A) B       1 (A) B     ->    5 (A) B       6 (A) B      
  0.0038174543       2 (A) B       1 (A) B     ->    6 (A) B       5 (A) B      
 -0.0024446134       1 (A) A       2 (A) B     ->    5 (A) A       3 (A) B      
 -0.0024446134       2 (A) A       1 (A) B     ->    3 (A) A       5 (A) B      
  0.0024446134       1 (A) A       2 (A) B     ->    3 (A) B       5 (A) A      
  0.0024446134       2 (A) A       1 (A) B     ->    5 (A) B       3 (A) A      
  0.0024446134       2 (A) B       1 (A) A     ->    5 (A) A       3 (A) B      
  0.0024446134       1 (A) B       2 (A) A     ->    3 (A) A       5 (A) B      
 -0.0024446134       1 (A) B       2 (A) A     ->    5 (A) B       3 (A) A      
 -0.0024446134       2 (A) B       1 (A) A     ->    3 (A) B       5 (A) A      
 -0.0023323860       1 (A) A       2 (A) B     ->    6 (A) A       5 (A) B      
 -0.0023323860       2 (A) A       1 (A) B     ->    5 (A) A       6 (A) B      
  0.0023323860       1 (A) A       2 (A) B     ->    5 (A) B       6 (A) A      
  0.0023323860       2 (A) A       1 (A) B     ->    6 (A) B       5 (A) A      
  0.0023323860       2 (A) B       1 (A) A     ->    6 (A) A       5 (A) B      
  0.0023323860       1 (A) B       2 (A) A     ->    5 (A) A       6 (A) B      
 -0.0023323860       1 (A) B       2 (A) A     ->    6 (A) B       5 (A) A      
 -0.0023323860       2 (A) B       1 (A) A     ->    5 (A) B       6 (A) A      
 -0.0021192657       1 (A) A       2 (A) B     ->    3 (A) A       5 (A) B      
 -0.0021192657       2 (A) A       1 (A) B     ->    5 (A) A       3 (A) B      
  0.0021192657       1 (A) A       2 (A) B     ->    5 (A) B       3 (A) A      
  0.0021192657       2 (A) A       1 (A) B     ->    3 (A) B       5 (A) A      
  0.0021192657       2 (A) B       1 (A) A     ->    3 (A) A       5 (A) B      
  0.0021192657       1 (A) B       2 (A) A     ->    5 (A) A       3 (A) B      
 -0.0021192657       1 (A) B       2 (A) A     ->    3 (A) B       5 (A) A      
 -0.0021192657       2 (A) B       1 (A) A     ->    5 (A) B       3 (A) A      
 -0.0018009339       1 (A) A       1 (A) B     ->    3 (A) A       5 (A) B      
 -0.0018009339       1 (A) A       1 (A) B     ->    5 (A) A       3 (A) B      
  0.0018009339       1 (A) A       1 (A) B     ->    5 (A) B       3 (A) A      
  0.0018009339       1 (A) A       1 (A) B     ->    3 (A) B       5 (A) A      
  0.0018009339       1 (A) B       1 (A) A     ->    3 (A) A       5 (A) B      
  0.0018009339       1 (A) B       1 (A) A     ->    5 (A) A       3 (A) B      
 -0.0018009339       1 (A) B       1 (A) A     ->    3 (A) B       5 (A) A      
 -0.0018009339       1 (A) B       1 (A) A     ->    5 (A) B       3 (A) A      
  0.0016259758       1 (A) A       1 (A) B     ->    5 (A) A       6 (A) B      
  0.0016259758       1 (A) A       1 (A) B     ->    6 (A) A       5 (A) B      
 -0.0016259758       1 (A) A       1 (A) B     ->    6 (A) B       5 (A) A      
 -0.0016259758       1 (A) A       1 (A) B     ->    5 (A) B       6 (A) A      
 -0.0016259758       1 (A) B       1 (A) A     ->    5 (A) A       6 (A) B      
 -0.0016259758       1 (A) B       1 (A) A     ->    6 (A) A       5 (A) B      
  0.0016259758       1 (A) B       1 (A) A     ->    5 (A) B       6 (A) A      
  0.0016259758       1 (A) B       1 (A) A     ->    6 (A) B       5 (A) A      
  0.0014797654       1 (A) A       2 (A) B     ->    5 (A) A       6 (A) B      
  0.0014797654       2 (A) A       1 (A) B     ->    6 (A) A       5 (A) B      
 -0.0014797654       1 (A) A       2 (A) B     ->    6 (A) B       5 (A) A      
 -0.0014797654       2 (A) A       1 (A) B     ->    5 (A) B       6 (A) A      
 -0.0014797654       2 (A) B       1 (A) A     ->    5 (A) A       6 (A) B      
 -0.0014797654       1 (A) B       2 (A) A     ->    6 (A) A       5 (A) B      
  0.0014797654       1 (A) B       2 (A) A     ->    5 (A) B       6 (A) A      
  0.0014797654       2 (A) B       1 (A) A     ->    6 (A) B       5 (A) A      
  0.0003262501       1 (A) A       2 (A) A     ->    3 (A) A       5 (A) A      
 -0.0003262501       1 (A) A       2 (A) A     ->    5 (A) A       3 (A) A      
 -0.0003262501       2 (A) A       1 (A) A     ->    3 (A) A       5 (A) A      
  0.0003262501       2 (A) A       1 (A) A     ->    5 (A) A       3 (A) A      
  0.0003262501       1 (A) B       2 (A) B     ->    3 (A) B       5 (A) B      
 -0.0003262501       1 (A) B       2 (A) B     ->    5 (A) B       3 (A) B      
 -0.0003262501       2 (A) B       1 (A) B     ->    3 (A) B       5 (A) B      
  0.0003262501       2 (A) B       1 (A) B     ->    5 (A) B       3 (A) B      

              Summary of significant orbitals:

               Number  Type             Irrep      Energy
               1       Occ  Alpha       1 (A)     -2.3514
               2       Occ  Alpha       2 (A)     -0.2766
               1       Occ  Beta        1 (A)     -2.3514
               2       Occ  Beta        2 (A)     -0.2766
               3       Vir  Alpha       3 (A)      0.0772
               5       Vir  Alpha       5 (A)      0.1639
               6       Vir  Alpha       6 (A)      0.5190
               3       Vir  Beta        3 (A)      0.0772
               5       Vir  Beta        5 (A)      0.1639
               6       Vir  Beta        6 (A)      0.5190


 EOMEE transition 3/A
 Total energy = -7.70095245 a.u.  Excitation energy = 4.85639107 eV.
 R0^2 = 0.0000  R1^2 = 0.8743  R2^2 = 0.1257  Res^2 = 3.10e-07
 Conv-d = yes

 Amplitude    Transitions between orbitals
  0.6611440864       2 (A) A                   ->    4 (A) A                    
  0.6611440864       2 (A) B                   ->    4 (A) B                    
  0.0062828517       1 (A) A                   ->    4 (A) A                    
  0.0062828517       1 (A) B                   ->    4 (A) B                    
 -0.1999433937       2 (A) A       2 (A) B     ->    4 (A) A       6 (A) B      
 -0.1999433937       2 (A) A       2 (A) B     ->    6 (A) A       4 (A) B      
  0.1999433937       2 (A) A       2 (A) B     ->    6 (A) B       4 (A) A      
  0.1999433937       2 (A) A       2 (A) B     ->    4 (A) B       6 (A) A      
  0.1999433937       2 (A) B       2 (A) A     ->    4 (A) A       6 (A) B      
  0.1999433937       2 (A) B       2 (A) A     ->    6 (A) A       4 (A) B      
 -0.1999433937       2 (A) B       2 (A) A     ->    4 (A) B       6 (A) A      
 -0.1999433937       2 (A) B       2 (A) A     ->    6 (A) B       4 (A) A      
  0.1511059179       2 (A) A       2 (A) B     ->    3 (A) A       4 (A) B      
  0.1511059179       2 (A) A       2 (A) B     ->    4 (A) A       3 (A) B      
 -0.1511059179       2 (A) A       2 (A) B     ->    4 (A) B       3 (A) A      
 -0.1511059179       2 (A) A       2 (A) B     ->    3 (A) B       4 (A) A      
 -0.1511059179       2 (A) B       2 (A) A     ->    3 (A) A       4 (A) B      
 -0.1511059179       2 (A) B       2 (A) A     ->    4 (A) A       3 (A) B      
  0.1511059179       2 (A) B       2 (A) A     ->    3 (A) B       4 (A) A      
  0.1511059179       2 (A) B       2 (A) A     ->    4 (A) B       3 (A) A      
  0.0038174543       1 (A) A       2 (A) A     ->    4 (A) A       6 (A) A      
 -0.0038174543       1 (A) A       2 (A) A     ->    6 (A) A       4 (A) A      
 -0.0038174543       2 (A) A       1 (A) A     ->    4 (A) A       6 (A) A      
  0.0038174543       2 (A) A       1 (A) A     ->    6 (A) A       4 (A) A      
  0.0038174543       1 (A) B       2 (A) B     ->    4 (A) B       6 (A) B      
 -0.0038174543       1 (A) B       2 (A) B     ->    6 (A) B       4 (A) B      
 -0.0038174543       2 (A) B       1 (A) B     ->    4 (A) B       6 (A) B      
  0.0038174543       2 (A) B       1 (A) B     ->    6 (A) B       4 (A) B      
 -0.0024446134       1 (A) A       2 (A) B     ->    4 (A) A       3 (A) B      
 -0.0024446134       2 (A) A       1 (A) B     ->    3 (A) A       4 (A) B      
  0.0024446134       1 (A) A       2 (A) B     ->    3 (A) B       4 (A) A      
  0.0024446134       2 (A) A       1 (A) B     ->    4 (A) B       3 (A) A      
  0.0024446134       2 (A) B       1 (A) A     ->    4 (A) A       3 (A) B      
  0.0024446134       1 (A) B       2 (A) A     ->    3 (A) A       4 (A) B      
 -0.0024446134       1 (A) B       2 (A) A     ->    4 (A) B       3 (A) A      
 -0.0024446134       2 (A) B       1 (A) A     ->    3 (A) B       4 (A) A      
 -0.0023323860       1 (A) A       2 (A) B     ->    6 (A) A       4 (A) B      
 -0.0023323860       2 (A) A       1 (A) B     ->    4 (A) A       6 (A) B      
  0.0023323860       1 (A) A       2 (A) B     ->    4 (A) B       6 (A) A      
  0.0023323860       2 (A) A       1 (A) B     ->    6 (A) B       4 (A) A      
  0.0023323860       2 (A) B       1 (A) A     ->    6 (A) A       4 (A) B      
  0.0023323860       1 (A) B       2 (A) A     ->    4 (A) A       6 (A) B      
 -0.0023323860       1 (A) B       2 (A) A     ->    6 (A) B       4 (A) A      
 -0.0023323860       2 (A) B       1 (A) A     ->    4 (A) B       6 (A) A      
 -0.0021192657       1 (A) A       2 (A) B     ->    3 (A) A       4 (A) B      
 -0.0021192657       2 (A) A       1 (A) B     ->    4 (A) A       3 (A) B      
  0.0021192657       1 (A) A       2 (A) B     ->    4 (A) B       3 (A) A      
  0.0021192657       2 (A) A       1 (A) B     ->    3 (A) B       4 (A) A      
  0.0021192657       2 (A) B       1 (A) A     ->    3 (A) A       4 (A) B      
  0.0021192657       1 (A) B       2 (A) A     ->    4 (A) A       3 (A) B      
 -0.0021192657       1 (A) B       2 (A) A     ->    3 (A) B       4 (A) A      
 -0.0021192657       2 (A) B       1 (A) A     ->    4 (A) B       3 (A) A      
 -0.0018009339       1 (A) A       1 (A) B     ->    3 (A) A       4 (A) B      
 -0.0018009339       1 (A) A       1 (A) B     ->    4 (A) A       3 (A) B      
  0.0018009339       1 (A) A       1 (A) B     ->    4 (A) B       3 (A) A      
  0.0018009339       1 (A) A       1 (A) B     ->    3 (A) B       4 (A) A      
  0.0018009339       1 (A) B       1 (A) A     ->    3 (A) A       4 (A) B      
  0.0018009339       1 (A) B       1 (A) A     ->    4 (A) A       3 (A) B      
 -0.0018009339       1 (A) B       1 (A) A     ->    3 (A) B       4 (A) A      
 -0.0018009339       1 (A) B       1 (A) A     ->    4 (A) B       3 (A) A      
  0.0016259758       1 (A) A       1 (A) B     ->    4 (A) A       6 (A) B      
  0.0016259758       1 (A) A       1 (A) B     ->    6 (A) A       4 (A) B      
 -0.0016259758       1 (A) A       1 (A) B     ->    6 (A) B       4 (A) A      
 -0.0016259758       1 (A) A       1 (A) B     ->    4 (A) B       6 (A) A      
 -0.0016259758       1 (A) B       1 (A) A     ->    4 (A) A       6 (A) B      
 -0.0016259758       1 (A) B       1 (A) A     ->    6 (A) A       4 (A) B      
  0.0016259758       1 (A) B       1 (A) A     ->    4 (A) B       6 (A) A      
  0.0016259758       1 (A) B       1 (A) A     ->    6 (A) B       4 (A) A      
  0.0014797654       1 (A) A       2 (A) B     ->    4 (A) A       6 (A) B      
  0.0014797654       2 (A) A       1 (A) B     ->    6 (A) A       4 (A) B      
 -0.0014797654       1 (A) A       2 (A) B     ->    6 (A) B       4 (A) A      
 -0.0014797654       2 (A) A       1 (A) B     ->    4 (A) B       6 (A) A      
 -0.0014797654       2 (A) B       1 (A) A     ->    4 (A) A       6 (A) B      
 -0.0014797654       1 (A) B       2 (A) A     ->    6 (A) A       4 (A) B      
  0.0014797654       1 (A) B       2 (A) A     ->    4 (A) B       6 (A) A      
  0.0014797654       2 (A) B       1 (A) A     ->    6 (A) B       4 (A) A      
  0.0003262501       1 (A) A       2 (A) A     ->    3 (A) A       4 (A) A      
 -0.0003262501       1 (A) A       2 (A) A     ->    4 (A) A       3 (A) A      
 -0.0003262501       2 (A) A       1 (A) A     ->    3 (A) A       4 (A) A      
  0.0003262501       2 (A) A       1 (A) A     ->    4 (A) A       3 (A) A      
  0.0003262501       1 (A) B       2 (A) B     ->    3 (A) B       4 (A) B      
 -0.0003262501       1 (A) B       2 (A) B     ->    4 (A) B       3 (A) B      
 -0.0003262501       2 (A) B       1 (A) B     ->    3 (A) B       4 (A) B      
  0.0003262501       2 (A) B       1 (A) B     ->    4 (A) B       3 (A) B      

              Summary of significant orbitals:

               Number  Type             Irrep      Energy
               1       Occ  Alpha       1 (A)     -2.3514
               2       Occ  Alpha       2 (A)     -0.2766
               1       Occ  Beta        1 (A)     -2.3514
               2       Occ  Beta        2 (A)     -0.2766
               3       Vir  Alpha       3 (A)      0.0772
               4       Vir  Alpha       4 (A)      0.1639
               6       Vir  Alpha       6 (A)      0.5190
               3       Vir  Beta        3 (A)      0.0772
               4       Vir  Beta        4 (A)      0.1639
               6       Vir  Beta        6 (A)      0.5190


 EEs and amplitudes of EOMEE has be exported to fchk file
Running a double precision version
      EOM-CCSD/MP2 left amplitudes will be solved using Davidson.
        Amplitudes will be solved using MOM  algorithm.
     Hard-coded thresholds: 
     LinDepThresh=1.00e-15  NormThresh=1.00e-06  ReorthogonThresh=1.00e-02

      Roots     MaxVec    MaxIter   Precond   Conv      Shift    
      3         120       60        1         1.00e-05  0.00e+00  
 ------------------------------------------------------------------------------
      Iter ConvRoots NVecs ResNorm Current eigenvalues (eV)
 ------------------------------------------------------------------------------
      0    0      3     7.63e-04   3.4602   4.8564   4.8564   
      1    0      6     2.35e-04   3.4602   4.8565   4.8565   
      2    2      9     1.03e-05   3.4602   4.8565*  4.8565*  
      3    3      10    1.70e-06   3.4602*  4.8565*  4.8565*  

     Davidson procedure converged

biorthogonolize_left_to_right(): degenerate block detected, ndeg=2

 Excited state properties for  EOMEE-CCSD transition 1/A
 Dipole moment (a.u.): 1.703650 (X 0.000000, Y 0.000000, Z 1.703650)
 R-squared (a.u.): 25.198410 (XX 4.213041, YY 4.213041, ZZ 16.772329)
 Gauge origin (a.u.): (0.000000, 0.000000, 0.000000)
 Angular momentum (a.u.) against gauge origin: 
 (X 0.000000i, Y 0.000000i, Z 0.000000i)
 Traces of the OPDMs: Tr(AA) 2.000000, Tr(BB) 2.000000

 Excited state properties for  EOMEE-CCSD transition 2/A
 Dipole moment (a.u.): 0.133382 (X 0.000000, Y 0.000000, Z 0.133382)
 R-squared (a.u.): 22.454171 (XX 5.868832, YY 5.868834, ZZ 10.716505)
 Gauge origin (a.u.): (0.000000, 0.000000, 0.000000)
 Angular momentum (a.u.) against gauge origin: 
 (X 0.000000i, Y 0.000000i, Z 0.000000i)
 Traces of the OPDMs: Tr(AA) 2.000000, Tr(BB) 2.000000

 Excited state properties for  EOMEE-CCSD transition 3/A
 Dipole moment (a.u.): 0.133382 (X 0.000000, Y 0.000000, Z 0.133382)
 R-squared (a.u.): 22.454171 (XX 5.868834, YY 5.868832, ZZ 10.716505)
 Gauge origin (a.u.): (0.000000, 0.000000, 0.000000)
 Angular momentum (a.u.) against gauge origin: 
 (X 0.000000i, Y 0.000000i, Z 0.000000i)
 Traces of the OPDMs: Tr(AA) 2.000000, Tr(BB) 2.000000

        Solving for EOMEE-CCSD A triplet states.

Running a double precision version
        EOMEE-CCSD/MP2 right amplitudes will be solved using Davidson.
        Amplitudes will be solved using standard  algorithm.
     Hard-coded thresholds: 
     LinDepThresh=1.00e-15  NormThresh=1.00e-06  ReorthogonThresh=1.00e-02

      Roots     MaxVec    MaxIter   Precond   Conv      Shift    
      3         120       60        1         1.00e-05  0.00e+00  
 ------------------------------------------------------------------------------
      Iter ConvRoots NVecs ResNorm Current eigenvalues (eV)
 ------------------------------------------------------------------------------
      0    0      3     1.99e-02   4.2020   5.3979   5.3979   
      1    0      6     1.72e-02   3.1387   4.5478   4.5478   
      2    0      9     6.42e-04   2.9675   4.3843   4.3843   
      3    0      12    5.34e-05   2.9597   4.3833   4.3833   
      4    3      15    7.45e-07   2.9582*  4.3850*  4.3850*  

     Davidson procedure converged

 EOMEE transition 1/A
 Total energy = -7.77071123 a.u.  Excitation energy = 2.95815810 eV.
 R0^2 = 0.0000  R1^2 = 0.9456  R2^2 = 0.0544  Res^2 = 1.31e-06
 Conv-d = yes

 Amplitude    Transitions between orbitals
  0.6787412622       2 (A) A                   ->    3 (A) A                    
 -0.6787412622       2 (A) B                   ->    3 (A) B                    
 -0.1100004344       2 (A) A                   ->    6 (A) A                    
  0.1100004344       2 (A) B                   ->    6 (A) B                    
  0.0035646708       1 (A) A                   ->    3 (A) A                    
 -0.0035646708       1 (A) B                   ->    3 (A) B                    
  0.0009715778       1 (A) A                   ->    6 (A) A                    
 -0.0009715778       1 (A) B                   ->    6 (A) B                    
 -0.1646113665       2 (A) A       2 (A) B     ->    3 (A) A       6 (A) B      
  0.1646113665       2 (A) A       2 (A) B     ->    6 (A) A       3 (A) B      
  0.1646113665       2 (A) A       2 (A) B     ->    6 (A) B       3 (A) A      
 -0.1646113665       2 (A) A       2 (A) B     ->    3 (A) B       6 (A) A      
  0.1646113665       2 (A) B       2 (A) A     ->    3 (A) A       6 (A) B      
 -0.1646113665       2 (A) B       2 (A) A     ->    6 (A) A       3 (A) B      
  0.1646113665       2 (A) B       2 (A) A     ->    3 (A) B       6 (A) A      
 -0.1646113665       2 (A) B       2 (A) A     ->    6 (A) B       3 (A) A      
  0.0058051530       1 (A) A       2 (A) B     ->    6 (A) A       3 (A) B      
 -0.0058051530       2 (A) A       1 (A) B     ->    3 (A) A       6 (A) B      
 -0.0058051530       1 (A) A       2 (A) B     ->    3 (A) B       6 (A) A      
  0.0058051530       2 (A) A       1 (A) B     ->    6 (A) B       3 (A) A      
 -0.0058051530       2 (A) B       1 (A) A     ->    6 (A) A       3 (A) B      
  0.0058051530       1 (A) B       2 (A) A     ->    3 (A) A       6 (A) B      
 -0.0058051530       1 (A) B       2 (A) A     ->    6 (A) B       3 (A) A      
  0.0058051530       2 (A) B       1 (A) A     ->    3 (A) B       6 (A) A      
  0.0045049558       1 (A) A       2 (A) A     ->    3 (A) A       6 (A) A      
 -0.0045049558       1 (A) A       2 (A) A     ->    6 (A) A       3 (A) A      
 -0.0045049558       2 (A) A       1 (A) A     ->    3 (A) A       6 (A) A      
  0.0045049558       2 (A) A       1 (A) A     ->    6 (A) A       3 (A) A      
 -0.0045049558       1 (A) B       2 (A) B     ->    3 (A) B       6 (A) B      
  0.0045049558       1 (A) B       2 (A) B     ->    6 (A) B       3 (A) B      
  0.0045049558       2 (A) B       1 (A) B     ->    3 (A) B       6 (A) B      
 -0.0045049558       2 (A) B       1 (A) B     ->    6 (A) B       3 (A) B      
  0.0042463788       1 (A) A       2 (A) B     ->    3 (A) A       3 (A) B      
 -0.0042463788       2 (A) A       1 (A) B     ->    3 (A) A       3 (A) B      
 -0.0042463788       1 (A) A       2 (A) B     ->    3 (A) B       3 (A) A      
  0.0042463788       2 (A) A       1 (A) B     ->    3 (A) B       3 (A) A      
 -0.0042463788       2 (A) B       1 (A) A     ->    3 (A) A       3 (A) B      
  0.0042463788       1 (A) B       2 (A) A     ->    3 (A) A       3 (A) B      
 -0.0042463788       1 (A) B       2 (A) A     ->    3 (A) B       3 (A) A      
  0.0042463788       2 (A) B       1 (A) A     ->    3 (A) B       3 (A) A      
  0.0034707922       1 (A) A       2 (A) B     ->    5 (A) A       5 (A) B      
 -0.0034707922       2 (A) A       1 (A) B     ->    5 (A) A       5 (A) B      
 -0.0034707922       1 (A) A       2 (A) B     ->    5 (A) B       5 (A) A      
  0.0034707922       2 (A) A       1 (A) B     ->    5 (A) B       5 (A) A      
 -0.0034707922       2 (A) B       1 (A) A     ->    5 (A) A       5 (A) B      
  0.0034707922       1 (A) B       2 (A) A     ->    5 (A) A       5 (A) B      
 -0.0034707922       1 (A) B       2 (A) A     ->    5 (A) B       5 (A) A      
  0.0034707922       2 (A) B       1 (A) A     ->    5 (A) B       5 (A) A      
  0.0034707922       1 (A) A       2 (A) B     ->    4 (A) A       4 (A) B      
 -0.0034707922       2 (A) A       1 (A) B     ->    4 (A) A       4 (A) B      
 -0.0034707922       1 (A) A       2 (A) B     ->    4 (A) B       4 (A) A      
  0.0034707922       2 (A) A       1 (A) B     ->    4 (A) B       4 (A) A      
 -0.0034707922       2 (A) B       1 (A) A     ->    4 (A) A       4 (A) B      
  0.0034707922       1 (A) B       2 (A) A     ->    4 (A) A       4 (A) B      
 -0.0034707922       1 (A) B       2 (A) A     ->    4 (A) B       4 (A) A      
  0.0034707922       2 (A) B       1 (A) A     ->    4 (A) B       4 (A) A      
  0.0014325417       1 (A) A       1 (A) B     ->    3 (A) A       6 (A) B      
 -0.0014325417       1 (A) A       1 (A) B     ->    6 (A) A       3 (A) B      
 -0.0014325417       1 (A) A       1 (A) B     ->    6 (A) B       3 (A) A      
  0.0014325417       1 (A) A       1 (A) B     ->    3 (A) B       6 (A) A      
 -0.0014325417       1 (A) B       1 (A) A     ->    3 (A) A       6 (A) B      
  0.0014325417       1 (A) B       1 (A) A     ->    6 (A) A       3 (A) B      
 -0.0014325417       1 (A) B       1 (A) A     ->    3 (A) B       6 (A) A      
  0.0014325417       1 (A) B       1 (A) A     ->    6 (A) B       3 (A) A      
  0.0010204284       1 (A) A       2 (A) B     ->    3 (A) A       6 (A) B      
 -0.0010204284       2 (A) A       1 (A) B     ->    6 (A) A       3 (A) B      
 -0.0010204284       1 (A) A       2 (A) B     ->    6 (A) B       3 (A) A      
  0.0010204284       2 (A) A       1 (A) B     ->    3 (A) B       6 (A) A      
 -0.0010204284       2 (A) B       1 (A) A     ->    3 (A) A       6 (A) B      
  0.0010204284       1 (A) B       2 (A) A     ->    6 (A) A       3 (A) B      
 -0.0010204284       1 (A) B       2 (A) A     ->    3 (A) B       6 (A) A      
  0.0010204284       2 (A) B       1 (A) A     ->    6 (A) B       3 (A) A      
  0.0006619110       1 (A) A       2 (A) B     ->    6 (A) A       6 (A) B      
 -0.0006619110       2 (A) A       1 (A) B     ->    6 (A) A       6 (A) B      
 -0.0006619110       1 (A) A       2 (A) B     ->    6 (A) B       6 (A) A      
  0.0006619110       2 (A) A       1 (A) B     ->    6 (A) B       6 (A) A      
 -0.0006619110       2 (A) B       1 (A) A     ->    6 (A) A       6 (A) B      
  0.0006619110       1 (A) B       2 (A) A     ->    6 (A) A       6 (A) B      
 -0.0006619110       1 (A) B       2 (A) A     ->    6 (A) B       6 (A) A      
  0.0006619110       2 (A) B       1 (A) A     ->    6 (A) B       6 (A) A      

              Summary of significant orbitals:

               Number  Type             Irrep      Energy
               1       Occ  Alpha       1 (A)     -2.3514
               2       Occ  Alpha       2 (A)     -0.2766
               1       Occ  Beta        1 (A)     -2.3514
               2       Occ  Beta        2 (A)     -0.2766
               3       Vir  Alpha       3 (A)      0.0772
               4       Vir  Alpha       4 (A)      0.1639
               5       Vir  Alpha       5 (A)      0.1639
               6       Vir  Alpha       6 (A)      0.5190
               3       Vir  Beta        3 (A)      0.0772
               4       Vir  Beta        4 (A)      0.1639
               5       Vir  Beta        5 (A)      0.1639
               6       Vir  Beta        6 (A)      0.5190


 EOMEE transition 2/A
 Total energy = -7.71827411 a.u.  Excitation energy = 4.38504468 eV.
 R0^2 = 0.0000  R1^2 = 0.9165  R2^2 = 0.0835  Res^2 = 4.63e-07
 Conv-d = yes

 Amplitude    Transitions between orbitals
 -0.6769576552       2 (A) A                   ->    5 (A) A                    
  0.6769576552       2 (A) B                   ->    5 (A) B                    
 -0.0013896943       1 (A) A                   ->    5 (A) A                    
  0.0013896943       1 (A) B                   ->    5 (A) B                    
  0.1655355710       2 (A) A       2 (A) B     ->    5 (A) A       6 (A) B      
 -0.1655355710       2 (A) A       2 (A) B     ->    6 (A) A       5 (A) B      
 -0.1655355710       2 (A) A       2 (A) B     ->    6 (A) B       5 (A) A      
  0.1655355710       2 (A) A       2 (A) B     ->    5 (A) B       6 (A) A      
 -0.1655355710       2 (A) B       2 (A) A     ->    5 (A) A       6 (A) B      
  0.1655355710       2 (A) B       2 (A) A     ->    6 (A) A       5 (A) B      
 -0.1655355710       2 (A) B       2 (A) A     ->    5 (A) B       6 (A) A      
  0.1655355710       2 (A) B       2 (A) A     ->    6 (A) B       5 (A) A      
  0.1194249672       2 (A) A       2 (A) B     ->    3 (A) A       5 (A) B      
 -0.1194249672       2 (A) A       2 (A) B     ->    5 (A) A       3 (A) B      
 -0.1194249672       2 (A) A       2 (A) B     ->    5 (A) B       3 (A) A      
  0.1194249672       2 (A) A       2 (A) B     ->    3 (A) B       5 (A) A      
 -0.1194249672       2 (A) B       2 (A) A     ->    3 (A) A       5 (A) B      
  0.1194249672       2 (A) B       2 (A) A     ->    5 (A) A       3 (A) B      
 -0.1194249672       2 (A) B       2 (A) A     ->    3 (A) B       5 (A) A      
  0.1194249672       2 (A) B       2 (A) A     ->    5 (A) B       3 (A) A      
 -0.0052970479       1 (A) A       2 (A) A     ->    5 (A) A       6 (A) A      
  0.0052970479       1 (A) A       2 (A) A     ->    6 (A) A       5 (A) A      
  0.0052970479       2 (A) A       1 (A) A     ->    5 (A) A       6 (A) A      
 -0.0052970479       2 (A) A       1 (A) A     ->    6 (A) A       5 (A) A      
  0.0052970479       1 (A) B       2 (A) B     ->    5 (A) B       6 (A) B      
 -0.0052970479       1 (A) B       2 (A) B     ->    6 (A) B       5 (A) B      
 -0.0052970479       2 (A) B       1 (A) B     ->    5 (A) B       6 (A) B      
  0.0052970479       2 (A) B       1 (A) B     ->    6 (A) B       5 (A) B      
 -0.0034055498       1 (A) A       2 (A) B     ->    5 (A) A       3 (A) B      
  0.0034055498       2 (A) A       1 (A) B     ->    3 (A) A       5 (A) B      
  0.0034055498       1 (A) A       2 (A) B     ->    3 (A) B       5 (A) A      
 -0.0034055498       2 (A) A       1 (A) B     ->    5 (A) B       3 (A) A      
  0.0034055498       2 (A) B       1 (A) A     ->    5 (A) A       3 (A) B      
 -0.0034055498       1 (A) B       2 (A) A     ->    3 (A) A       5 (A) B      
  0.0034055498       1 (A) B       2 (A) A     ->    5 (A) B       3 (A) A      
 -0.0034055498       2 (A) B       1 (A) A     ->    3 (A) B       5 (A) A      
 -0.0024773705       1 (A) A       2 (A) B     ->    3 (A) A       5 (A) B      
  0.0024773705       2 (A) A       1 (A) B     ->    5 (A) A       3 (A) B      
  0.0024773705       1 (A) A       2 (A) B     ->    5 (A) B       3 (A) A      
 -0.0024773705       2 (A) A       1 (A) B     ->    3 (A) B       5 (A) A      
  0.0024773705       2 (A) B       1 (A) A     ->    3 (A) A       5 (A) B      
 -0.0024773705       1 (A) B       2 (A) A     ->    5 (A) A       3 (A) B      
  0.0024773705       1 (A) B       2 (A) A     ->    3 (A) B       5 (A) A      
 -0.0024773705       2 (A) B       1 (A) A     ->    5 (A) B       3 (A) A      
 -0.0024006012       1 (A) A       2 (A) B     ->    6 (A) A       5 (A) B      
  0.0024006012       2 (A) A       1 (A) B     ->    5 (A) A       6 (A) B      
  0.0024006012       1 (A) A       2 (A) B     ->    5 (A) B       6 (A) A      
 -0.0024006012       2 (A) A       1 (A) B     ->    6 (A) B       5 (A) A      
  0.0024006012       2 (A) B       1 (A) A     ->    6 (A) A       5 (A) B      
 -0.0024006012       1 (A) B       2 (A) A     ->    5 (A) A       6 (A) B      
  0.0024006012       1 (A) B       2 (A) A     ->    6 (A) B       5 (A) A      
 -0.0024006012       2 (A) B       1 (A) A     ->    5 (A) B       6 (A) A      
 -0.0017544485       1 (A) A       1 (A) B     ->    3 (A) A       5 (A) B      
  0.0017544485       1 (A) A       1 (A) B     ->    5 (A) A       3 (A) B      
  0.0017544485       1 (A) A       1 (A) B     ->    5 (A) B       3 (A) A      
 -0.0017544485       1 (A) A       1 (A) B     ->    3 (A) B       5 (A) A      
  0.0017544485       1 (A) B       1 (A) A     ->    3 (A) A       5 (A) B      
 -0.0017544485       1 (A) B       1 (A) A     ->    5 (A) A       3 (A) B      
  0.0017544485       1 (A) B       1 (A) A     ->    3 (A) B       5 (A) A      
 -0.0017544485       1 (A) B       1 (A) A     ->    5 (A) B       3 (A) A      
  0.0017475595       1 (A) A       2 (A) B     ->    5 (A) A       6 (A) B      
 -0.0017475595       2 (A) A       1 (A) B     ->    6 (A) A       5 (A) B      
 -0.0017475595       1 (A) A       2 (A) B     ->    6 (A) B       5 (A) A      
  0.0017475595       2 (A) A       1 (A) B     ->    5 (A) B       6 (A) A      
 -0.0017475595       2 (A) B       1 (A) A     ->    5 (A) A       6 (A) B      
  0.0017475595       1 (A) B       2 (A) A     ->    6 (A) A       5 (A) B      
 -0.0017475595       1 (A) B       2 (A) A     ->    5 (A) B       6 (A) A      
  0.0017475595       2 (A) B       1 (A) A     ->    6 (A) B       5 (A) A      
 -0.0015897878       1 (A) A       1 (A) B     ->    5 (A) A       6 (A) B      
  0.0015897878       1 (A) A       1 (A) B     ->    6 (A) A       5 (A) B      
  0.0015897878       1 (A) A       1 (A) B     ->    6 (A) B       5 (A) A      
 -0.0015897878       1 (A) A       1 (A) B     ->    5 (A) B       6 (A) A      
  0.0015897878       1 (A) B       1 (A) A     ->    5 (A) A       6 (A) B      
 -0.0015897878       1 (A) B       1 (A) A     ->    6 (A) A       5 (A) B      
  0.0015897878       1 (A) B       1 (A) A     ->    5 (A) B       6 (A) A      
 -0.0015897878       1 (A) B       1 (A) A     ->    6 (A) B       5 (A) A      
 -0.0013555595       1 (A) A       2 (A) A     ->    3 (A) A       5 (A) A      
  0.0013555595       1 (A) A       2 (A) A     ->    5 (A) A       3 (A) A      
  0.0013555595       2 (A) A       1 (A) A     ->    3 (A) A       5 (A) A      
 -0.0013555595       2 (A) A       1 (A) A     ->    5 (A) A       3 (A) A      
  0.0013555595       1 (A) B       2 (A) B     ->    3 (A) B       5 (A) B      
 -0.0013555595       1 (A) B       2 (A) B     ->    5 (A) B       3 (A) B      
 -0.0013555595       2 (A) B       1 (A) B     ->    3 (A) B       5 (A) B      
  0.0013555595       2 (A) B       1 (A) B     ->    5 (A) B       3 (A) B      

              Summary of significant orbitals:

               Number  Type             Irrep      Energy
               1       Occ  Alpha       1 (A)     -2.3514
               2       Occ  Alpha       2 (A)     -0.2766
               1       Occ  Beta        1 (A)     -2.3514
               2       Occ  Beta        2 (A)     -0.2766
               3       Vir  Alpha       3 (A)      0.0772
               5       Vir  Alpha       5 (A)      0.1639
               6       Vir  Alpha       6 (A)      0.5190
               3       Vir  Beta        3 (A)      0.0772
               5       Vir  Beta        5 (A)      0.1639
               6       Vir  Beta        6 (A)      0.5190


 EOMEE transition 3/A
 Total energy = -7.71827411 a.u.  Excitation energy = 4.38504469 eV.
 R0^2 = 0.0000  R1^2 = 0.9165  R2^2 = 0.0835  Res^2 = 4.63e-07
 Conv-d = yes

 Amplitude    Transitions between orbitals
 -0.6769576552       2 (A) A                   ->    4 (A) A                    
  0.6769576552       2 (A) B                   ->    4 (A) B                    
 -0.0013896943       1 (A) A                   ->    4 (A) A                    
  0.0013896943       1 (A) B                   ->    4 (A) B                    
  0.1655355710       2 (A) A       2 (A) B     ->    4 (A) A       6 (A) B      
 -0.1655355710       2 (A) A       2 (A) B     ->    6 (A) A       4 (A) B      
 -0.1655355710       2 (A) A       2 (A) B     ->    6 (A) B       4 (A) A      
  0.1655355710       2 (A) A       2 (A) B     ->    4 (A) B       6 (A) A      
 -0.1655355710       2 (A) B       2 (A) A     ->    4 (A) A       6 (A) B      
  0.1655355710       2 (A) B       2 (A) A     ->    6 (A) A       4 (A) B      
 -0.1655355710       2 (A) B       2 (A) A     ->    4 (A) B       6 (A) A      
  0.1655355710       2 (A) B       2 (A) A     ->    6 (A) B       4 (A) A      
  0.1194249672       2 (A) A       2 (A) B     ->    3 (A) A       4 (A) B      
 -0.1194249672       2 (A) A       2 (A) B     ->    4 (A) A       3 (A) B      
 -0.1194249672       2 (A) A       2 (A) B     ->    4 (A) B       3 (A) A      
  0.1194249672       2 (A) A       2 (A) B     ->    3 (A) B       4 (A) A      
 -0.1194249672       2 (A) B       2 (A) A     ->    3 (A) A       4 (A) B      
  0.1194249672       2 (A) B       2 (A) A     ->    4 (A) A       3 (A) B      
 -0.1194249672       2 (A) B       2 (A) A     ->    3 (A) B       4 (A) A      
  0.1194249672       2 (A) B       2 (A) A     ->    4 (A) B       3 (A) A      
 -0.0052970479       1 (A) A       2 (A) A     ->    4 (A) A       6 (A) A      
  0.0052970479       1 (A) A       2 (A) A     ->    6 (A) A       4 (A) A      
  0.0052970479       2 (A) A       1 (A) A     ->    4 (A) A       6 (A) A      
 -0.0052970479       2 (A) A       1 (A) A     ->    6 (A) A       4 (A) A      
  0.0052970479       1 (A) B       2 (A) B     ->    4 (A) B       6 (A) B      
 -0.0052970479       1 (A) B       2 (A) B     ->    6 (A) B       4 (A) B      
 -0.0052970479       2 (A) B       1 (A) B     ->    4 (A) B       6 (A) B      
  0.0052970479       2 (A) B       1 (A) B     ->    6 (A) B       4 (A) B      
 -0.0034055498       1 (A) A       2 (A) B     ->    4 (A) A       3 (A) B      
  0.0034055498       2 (A) A       1 (A) B     ->    3 (A) A       4 (A) B      
  0.0034055498       1 (A) A       2 (A) B     ->    3 (A) B       4 (A) A      
 -0.0034055498       2 (A) A       1 (A) B     ->    4 (A) B       3 (A) A      
  0.0034055498       2 (A) B       1 (A) A     ->    4 (A) A       3 (A) B      
 -0.0034055498       1 (A) B       2 (A) A     ->    3 (A) A       4 (A) B      
  0.0034055498       1 (A) B       2 (A) A     ->    4 (A) B       3 (A) A      
 -0.0034055498       2 (A) B       1 (A) A     ->    3 (A) B       4 (A) A      
 -0.0024773705       1 (A) A       2 (A) B     ->    3 (A) A       4 (A) B      
  0.0024773705       2 (A) A       1 (A) B     ->    4 (A) A       3 (A) B      
  0.0024773705       1 (A) A       2 (A) B     ->    4 (A) B       3 (A) A      
 -0.0024773705       2 (A) A       1 (A) B     ->    3 (A) B       4 (A) A      
  0.0024773705       2 (A) B       1 (A) A     ->    3 (A) A       4 (A) B      
 -0.0024773705       1 (A) B       2 (A) A     ->    4 (A) A       3 (A) B      
  0.0024773705       1 (A) B       2 (A) A     ->    3 (A) B       4 (A) A      
 -0.0024773705       2 (A) B       1 (A) A     ->    4 (A) B       3 (A) A      
 -0.0024006012       1 (A) A       2 (A) B     ->    6 (A) A       4 (A) B      
  0.0024006012       2 (A) A       1 (A) B     ->    4 (A) A       6 (A) B      
  0.0024006012       1 (A) A       2 (A) B     ->    4 (A) B       6 (A) A      
 -0.0024006012       2 (A) A       1 (A) B     ->    6 (A) B       4 (A) A      
  0.0024006012       2 (A) B       1 (A) A     ->    6 (A) A       4 (A) B      
 -0.0024006012       1 (A) B       2 (A) A     ->    4 (A) A       6 (A) B      
  0.0024006012       1 (A) B       2 (A) A     ->    6 (A) B       4 (A) A      
 -0.0024006012       2 (A) B       1 (A) A     ->    4 (A) B       6 (A) A      
 -0.0017544485       1 (A) A       1 (A) B     ->    3 (A) A       4 (A) B      
  0.0017544485       1 (A) A       1 (A) B     ->    4 (A) A       3 (A) B      
  0.0017544485       1 (A) A       1 (A) B     ->    4 (A) B       3 (A) A      
 -0.0017544485       1 (A) A       1 (A) B     ->    3 (A) B       4 (A) A      
  0.0017544485       1 (A) B       1 (A) A     ->    3 (A) A       4 (A) B      
 -0.0017544485       1 (A) B       1 (A) A     ->    4 (A) A       3 (A) B      
  0.0017544485       1 (A) B       1 (A) A     ->    3 (A) B       4 (A) A      
 -0.0017544485       1 (A) B       1 (A) A     ->    4 (A) B       3 (A) A      
  0.0017475595       1 (A) A       2 (A) B     ->    4 (A) A       6 (A) B      
 -0.0017475595       2 (A) A       1 (A) B     ->    6 (A) A       4 (A) B      
 -0.0017475595       1 (A) A       2 (A) B     ->    6 (A) B       4 (A) A      
  0.0017475595       2 (A) A       1 (A) B     ->    4 (A) B       6 (A) A      
 -0.0017475595       2 (A) B       1 (A) A     ->    4 (A) A       6 (A) B      
  0.0017475595       1 (A) B       2 (A) A     ->    6 (A) A       4 (A) B      
 -0.0017475595       1 (A) B       2 (A) A     ->    4 (A) B       6 (A) A      
  0.0017475595       2 (A) B       1 (A) A     ->    6 (A) B       4 (A) A      
 -0.0015897878       1 (A) A       1 (A) B     ->    4 (A) A       6 (A) B      
  0.0015897878       1 (A) A       1 (A) B     ->    6 (A) A       4 (A) B      
  0.0015897878       1 (A) A       1 (A) B     ->    6 (A) B       4 (A) A      
 -0.0015897878       1 (A) A       1 (A) B     ->    4 (A) B       6 (A) A      
  0.0015897878       1 (A) B       1 (A) A     ->    4 (A) A       6 (A) B      
 -0.0015897878       1 (A) B       1 (A) A     ->    6 (A) A       4 (A) B      
  0.0015897878       1 (A) B       1 (A) A     ->    4 (A) B       6 (A) A      
 -0.0015897878       1 (A) B       1 (A) A     ->    6 (A) B       4 (A) A      
 -0.0013555595       1 (A) A       2 (A) A     ->    3 (A) A       4 (A) A      
  0.0013555595       1 (A) A       2 (A) A     ->    4 (A) A       3 (A) A      
  0.0013555595       2 (A) A       1 (A) A     ->    3 (A) A       4 (A) A      
 -0.0013555595       2 (A) A       1 (A) A     ->    4 (A) A       3 (A) A      
  0.0013555595       1 (A) B       2 (A) B     ->    3 (A) B       4 (A) B      
 -0.0013555595       1 (A) B       2 (A) B     ->    4 (A) B       3 (A) B      
 -0.0013555595       2 (A) B       1 (A) B     ->    3 (A) B       4 (A) B      
  0.0013555595       2 (A) B       1 (A) B     ->    4 (A) B       3 (A) B      

              Summary of significant orbitals:

               Number  Type             Irrep      Energy
               1       Occ  Alpha       1 (A)     -2.3514
               2       Occ  Alpha       2 (A)     -0.2766
               1       Occ  Beta        1 (A)     -2.3514
               2       Occ  Beta        2 (A)     -0.2766
               3       Vir  Alpha       3 (A)      0.0772
               4       Vir  Alpha       4 (A)      0.1639
               6       Vir  Alpha       6 (A)      0.5190
               3       Vir  Beta        3 (A)      0.0772
               4       Vir  Beta        4 (A)      0.1639
               6       Vir  Beta        6 (A)      0.5190


 EEs and amplitudes of EOMEE has be exported to fchk file
Running a double precision version
      EOM-CCSD/MP2 left amplitudes will be solved using Davidson.
        Amplitudes will be solved using MOM  algorithm.
     Hard-coded thresholds: 
     LinDepThresh=1.00e-15  NormThresh=1.00e-06  ReorthogonThresh=1.00e-02

      Roots     MaxVec    MaxIter   Precond   Conv      Shift    
      3         120       60        1         1.00e-05  0.00e+00  
 ------------------------------------------------------------------------------
      Iter ConvRoots NVecs ResNorm Current eigenvalues (eV)
 ------------------------------------------------------------------------------
      0    0      3     2.71e-04   2.9582   4.3850   4.3850   
      1    0      6     1.39e-04   2.9581   4.3851   4.3851   
      2    3      9     6.62e-06   2.9581*  4.3851*  4.3851*  

     Davidson procedure converged

biorthogonolize_left_to_right(): degenerate block detected, ndeg=2

 Excited state properties for  EOMEE-CCSD transition 1/A
 Dipole moment (a.u.): 1.573462 (X 0.000000, Y 0.000000, Z 1.573462)
 R-squared (a.u.): 25.174320 (XX 4.969463, YY 4.969463, ZZ 15.235394)
 Gauge origin (a.u.): (0.000000, 0.000000, 0.000000)
 Angular momentum (a.u.) against gauge origin: 
 (X 0.000000i, Y 0.000000i, Z 0.000000i)
 Traces of the OPDMs: Tr(AA) 2.000000, Tr(BB) 2.000000

 Excited state properties for  EOMEE-CCSD transition 2/A
 Dipole moment (a.u.): 0.201338 (X 0.000000, Y 0.000000, Z 0.201338)
 R-squared (a.u.): 22.515362 (XX 6.003356, YY 6.003356, ZZ 10.508649)
 Gauge origin (a.u.): (0.000000, 0.000000, 0.000000)
 Angular momentum (a.u.) against gauge origin: 
 (X 0.000000i, Y 0.000000i, Z 0.000000i)
 Traces of the OPDMs: Tr(AA) 2.000000, Tr(BB) 2.000000

 Excited state properties for  EOMEE-CCSD transition 3/A
 Dipole moment (a.u.): 0.201338 (X 0.000000, Y 0.000000, Z 0.201338)
 R-squared (a.u.): 22.515362 (XX 6.003356, YY 6.003356, ZZ 10.508649)
 Gauge origin (a.u.): (0.000000, 0.000000, 0.000000)
 Angular momentum (a.u.) against gauge origin: 
 (X 0.000000i, Y 0.000000i, Z 0.000000i)
 Traces of the OPDMs: Tr(AA) 2.000000, Tr(BB) 2.000000

 EOMEE-CCSD calculation:   CPU 2.25 s  wall 1.70 s

 Total ccman2 time:   CPU 3.09 s  wall 2.24 s


 --------------------------------------------------------------

                    Orbital Energies (a.u.)
 --------------------------------------------------------------

 Alpha MOs
 -- Occupied --
 -2.3514  -0.2766
 -- Virtual --
  0.0772   0.1639   0.1639   0.5190
 --------------------------------------------------------------

          Ground-State Mulliken Net Atomic Charges

     Atom                 Charge (a.u.)
  ----------------------------------------
      1 Li                   -0.018788
      2 H                     0.018788
  ----------------------------------------
  Sum of atomic charges =     0.000000

 -----------------------------------------------------------------
                    Cartesian Multipole Moments
 -----------------------------------------------------------------
    Charge (ESU x 10^10)
                 0.0000
    Dipole Moment (Debye)
         X      -0.0000      Y      -0.0000      Z      -4.6021
       Tot       4.6021
    Quadrupole Moments (Debye-Ang)
        XX      -5.5602     XY       0.0000     YY      -5.5602
        XZ      -0.0000     YZ      -0.0000     ZZ      -4.6129
    Octopole Moments (Debye-Ang^2)
       XXX      -0.0000    XXY      -0.0000    XYY      -0.0000
       YYY      -0.0000    XXZ      -3.0864    XYZ      -0.0000
       YYZ      -3.0864    XZZ      -0.0000    YZZ      -0.0000
       ZZZ      -9.1326
    Hexadecapole Moments (Debye-Ang^3)
      XXXX     -13.9242   XXXY       0.0000   XXYY      -4.6414
      XYYY       0.0000   YYYY     -13.9242   XXXZ      -0.0000
      XXYZ      -0.0000   XYYZ      -0.0000   YYYZ      -0.0000
      XXZZ      -6.2600   XYZZ       0.0000   YYZZ      -6.2600
      XZZZ      -0.0000   YZZZ      -0.0000   ZZZZ     -23.1146
 -----------------------------------------------------------------
 Total job time:  3.77s(wall), 5.63s(cpu) 
 Thu Aug 11 11:28:02 2022

        *************************************************************
        *                                                           *
        *  Thank you very much for using Q-Chem.  Have a nice day.  *
        *                                                           *
        *************************************************************


