Jobname.Temp
SP        R                             STO-3G              
Number of atoms                            I                2
Charge                                     I                0
Multiplicity                               I                1
Number of electrons                        I                4
Number of alpha electrons                  I                2
Number of beta electrons                   I                2
Atomic numbers                             I   N=           2
           3           1
Current cartesian coordinates              R   N=           6
  0.00000000E+00  0.00000000E+00 -8.03133603E-01  0.00000000E+00  0.00000000E+00
  2.40940081E+00
Nuclear charges                            R   N=           2
  3.00000000E+00  1.00000000E+00
Number of basis functions                  I                6
Number of contracted shells                I                3
Number of primitive shells                 I                9
Highest angular momentum                   I                1
Largest degree of contraction              I                3
Shell types                                I   N=           3
           0          -1           0
Number of primitives per shell             I   N=           3
           3           3           3
Shell to atom map                          I   N=           3
           1           1           2
Primitive exponents                        R   N=           9
  1.61195750E+01  2.93620070E+00  7.94650500E-01  6.36289700E-01  1.47860100E-01
  4.80887000E-02  3.42525091E+00  6.23913730E-01  1.68855400E-01
Contraction coefficients                   R   N=           9
  1.54328970E-01  5.35328141E-01  4.44634541E-01 -9.99672298E-02  3.99512829E-01
  7.00115469E-01  1.54328971E-01  5.35328142E-01  4.44634542E-01
P(S=P) Contraction coefficients            R   N=           9
  0.00000000E+00  0.00000000E+00  0.00000000E+00  1.55916265E-01  6.07683701E-01
  3.91957378E-01  0.00000000E+00  0.00000000E+00  0.00000000E+00
Coordinates of each shell                  R   N=           9
  0.00000000E+00  0.00000000E+00 -8.03133603E-01  0.00000000E+00  0.00000000E+00
 -8.03133603E-01  0.00000000E+00  0.00000000E+00  2.40940081E+00
Overlap Matrix                             R   N=          21
  1.00000000E+00  2.41136651E-01  1.00000000E+00  0.00000000E+00  0.00000000E+00
  1.00000000E+00  0.00000000E+00  0.00000000E+00  0.00000000E+00  1.00000000E+00
  1.85337211E-17  1.46464884E-17  0.00000000E+00  0.00000000E+00  1.00000000E+00
  5.36756856E-02  3.70385407E-01  0.00000000E+00  0.00000000E+00  4.92826249E-01
  1.00000000E+00
Core Hamiltonian Matrix                    R   N=          21
 -4.71737567E+00 -1.05964045E+00 -1.38497572E+00  0.00000000E+00  0.00000000E+00
 -1.12665601E+00  0.00000000E+00  0.00000000E+00  0.00000000E+00 -1.12665601E+00
 -1.42646383E-02 -1.16504745E-01  0.00000000E+00  0.00000000E+00 -1.21994335E+00
 -2.42745829E-01 -6.32861334E-01  0.00000000E+00  0.00000000E+00 -7.87177665E-01
 -1.39887690E+00
Orbital Coefficients CCMAN2 Alpha          R   N=          36
  9.91325742E-01  3.31283169E-02 -2.19091569E-18 -2.15858725E-16 -5.66462525E-03
  2.39016327E-03  1.61360593E-01 -4.63801212E-01 -5.99352936E-17 -5.67047105E-17
 -3.42495484E-01 -5.55670921E-01 -2.11234935E-01  7.98502706E-01 -3.43327154E-17
  1.70677920E-15 -6.10133712E-01 -1.48409542E-01 -8.33928742E-17  2.74722114E-16
  1.00000000E+00  8.78081039E-17 -2.29961318E-16 -4.74872344E-17 -7.97280797E-17
  1.40724897E-15  2.37068362E-16 -1.00000000E+00 -8.78548459E-16 -4.19699587E-16
  1.03281157E-01 -6.63892708E-01  1.05503993E-17 -1.89758932E-16 -9.50280875E-01
  1.13392343E+00
Orbital Coefficients CCMAN2 Beta           R   N=          36
  1.61360593E-01 -4.63801212E-01 -5.99352936E-17 -5.67047105E-17 -3.42495484E-01
 -5.55670921E-01 -2.11234935E-01  7.98502706E-01 -3.43327154E-17  1.70677920E-15
 -6.10133712E-01 -1.48409542E-01 -8.33928742E-17  2.74722114E-16  1.00000000E+00
  8.78081039E-17 -2.29961318E-16 -4.74872344E-17 -7.97280797E-17  1.40724897E-15
  2.37068362E-16 -1.00000000E+00 -8.78548459E-16 -4.19699587E-16  1.03281157E-01
 -6.63892708E-01  1.05503993E-17 -1.89758932E-16 -9.50280875E-01  1.13392343E+00
  9.91325742E-01  3.31283169E-02 -2.19091569E-18 -2.15858725E-16 -5.66462525E-03
  2.39016327E-03
EOMEE transition A Excitation Energies     R   N=           3
  1.27161467E-01  1.78469095E-01  1.78469095E-01
Number of Active Occ                       I                4
Number of Active Vir                       I                8
Alpha Amplitudes                           R   N=           6
 -6.59339975E-01 -6.59339975E-01  6.61144086E-01  6.61144086E-01  6.61144086E-01
  6.61144086E-01
Alpha J Indexes                            I   N=           4
           0           2           4           6
Alpha I Indexes                            I   N=           6
           8          28          10          30           9          29
EOMEE transition A Excitation Energies     R   N=           3
  1.08710314E-01  1.61147434E-01  1.61147434E-01
Number of Active Occ                       I                4
Number of Active Vir                       I                8
Alpha Amplitudes                           R   N=           8
  6.78741262E-01 -1.10000434E-01 -6.78741262E-01  1.10000434E-01 -6.76957655E-01
  6.76957655E-01 -6.76957655E-01  6.76957655E-01
Alpha J Indexes                            I   N=           4
           0           4           6           8
Alpha I Indexes                            I   N=           8
           8          11          28          31          10          30
           9          29
Number of independent functions            I                6
Alpha MO coefficients                      R   N=          36
  9.91325742E-01  3.31283169E-02 -2.19091569E-18 -2.15858725E-16 -5.66462525E-03
  2.39016327E-03  1.61360593E-01 -4.63801212E-01 -5.99352936E-17 -5.67047105E-17
 -3.42495484E-01 -5.55670921E-01 -2.11234935E-01  7.98502706E-01 -3.43327154E-17
  1.70677920E-15 -6.10133712E-01 -1.48409542E-01 -8.33928742E-17  2.74722114E-16
  1.00000000E+00  8.78081039E-17 -2.29961318E-16 -4.74872344E-17 -7.97280797E-17
  1.40724897E-15  2.37068362E-16 -1.00000000E+00 -8.78548459E-16 -4.19699587E-16
  1.03281157E-01 -6.63892708E-01  1.05503993E-17 -1.89758932E-16 -9.50280875E-01
  1.13392343E+00
Alpha Orbital Energies                     R   N=           6
 -2.35138914E+00 -2.76601910E-01  7.72194605E-02  1.63852936E-01  1.63852936E-01
  5.19026349E-01
Total SCF Density                          R   N=          21
  2.02261179E+00 -1.04702909E-01  5.20486355E-01 -6.28173431E-17  1.01446293E-16
  1.38291771E-03 -1.27420916E-15  2.91912514E-16 -6.75234216E-19  1.38291771E-03
 -1.17938691E-01  3.23054062E-01  6.30561745E-17  2.12313760E-16  2.02277581E-01
 -1.69942872E-01  4.81567140E-01  8.60415276E-17  3.04664183E-16  3.08218757E-01
  6.60069986E-01
Pure Switching                             I                1
Dipole_Data                                R   N=           3
 -1.01423759E-15 -2.18713326E-15 -4.60214101E+00
Quadrupole_Data                            R   N=           6
 -5.56020952E+00  4.26866121E-18 -5.56020952E+00 -1.11700739E-16 -9.22999422E-16
 -4.61290125E+00
Octapole_Data                              R   N=          10
 -2.70974693E-15 -2.54145755E-15 -9.03248976E-16 -7.62437264E-15 -3.08644881E+00
 -1.81418102E-18 -3.08644881E+00 -7.93606670E-16 -1.95849818E-15 -9.13263666E+00
Hexadecapole_Data                          R   N=          15
 -1.39241622E+01  1.12874411E-17 -4.64138739E+00  1.12874411E-17 -1.39241622E+01
 -9.92431940E-17 -3.35220023E-16 -3.30810647E-17 -1.00566007E-15 -6.26001365E+00
  4.53350731E-18 -6.26001365E+00 -3.07071871E-16 -1.81180234E-15 -2.31146110E+01
