Jobname.Temp
SP        R                             STO-3G              
Number of atoms                            I                3
Charge                                     I                0
Multiplicity                               I                1
Number of electrons                        I               10
Number of alpha electrons                  I                5
Number of beta electrons                   I                5
Atomic numbers                             I   N=           3
           8           1           1
Current cartesian coordinates              R   N=           9
 -7.17853856E-17  2.91269267E-17  3.00799977E-01 -1.94244277E+00 -2.08753705E-16
 -1.20319991E+00  1.94244277E+00 -2.42617083E-17 -1.20319991E+00
Nuclear charges                            R   N=           3
  8.00000000E+00  1.00000000E+00  1.00000000E+00
Number of basis functions                  I                7
Number of contracted shells                I                4
Number of primitive shells                 I               12
Highest angular momentum                   I                1
Largest degree of contraction              I                3
Shell types                                I   N=           4
           0          -1           0           0
Number of primitives per shell             I   N=           4
           3           3           3           3
Shell to atom map                          I   N=           4
           1           1           2           3
Primitive exponents                        R   N=          12
  1.30709320E+02  2.38088610E+01  6.44360830E+00  5.03315130E+00  1.16959610E+00
  3.80389000E-01  3.42525091E+00  6.23913730E-01  1.68855400E-01  3.42525091E+00
  6.23913730E-01  1.68855400E-01
Contraction coefficients                   R   N=          12
  1.54328969E-01  5.35328136E-01  4.44634536E-01 -9.99672287E-02  3.99512825E-01
  7.00115461E-01  1.54328971E-01  5.35328142E-01  4.44634542E-01  1.54328971E-01
  5.35328142E-01  4.44634542E-01
P(S=P) Contraction coefficients            R   N=          12
  0.00000000E+00  0.00000000E+00  0.00000000E+00  1.55916268E-01  6.07683714E-01
  3.91957386E-01  0.00000000E+00  0.00000000E+00  0.00000000E+00  0.00000000E+00
  0.00000000E+00  0.00000000E+00
Coordinates of each shell                  R   N=          12
 -7.17853856E-17  2.91269267E-17  3.00799977E-01 -7.17853856E-17  2.91269267E-17
  3.00799977E-01 -1.94244277E+00 -2.08753705E-16 -1.20319991E+00  1.94244277E+00
 -2.42617083E-17 -1.20319991E+00
Overlap Matrix                             R   N=          28
  1.00000000E+00  2.36703937E-01  1.00000000E+00  5.98984544E-34 -3.25188709E-33
  1.00000000E+00  1.05152713E-33  5.47882949E-33  0.00000000E+00  1.00000000E+00
 -1.88546251E-17  4.03922881E-17  1.69172130E-49  3.47184774E-49  1.00000000E+00
  2.40528181E-02  2.81001604E-01 -2.09489910E-01 -2.56551148E-17 -1.62204419E-01
  1.00000000E+00  2.40528181E-02  2.81001604E-01  2.09489910E-01 -5.75789441E-18
 -1.62204419E-01  1.08709054E-01  1.00000000E+00
Core Hamiltonian Matrix                    R   N=          28
 -3.24293737E+01 -7.54379551E+00 -9.05692904E+00  0.00000000E+00  0.00000000E+00
 -7.29732994E+00  0.00000000E+00  0.00000000E+00  0.00000000E+00 -7.22482760E+00
  1.03049491E-02  1.28849639E-01  0.00000000E+00  0.00000000E+00 -7.26829375E+00
 -7.73500908E-01 -2.00355214E+00  1.23513794E+00 -8.84157506E-18  9.82551317E-01
 -3.95002327E+00 -7.73500908E-01 -2.00355214E+00 -1.23513794E+00 -1.98435501E-18
  9.82551317E-01 -5.82322830E-01 -3.95002327E+00
Orbital Coefficients CCMAN2 Alpha          R   N=          49
  9.94728311E-01  2.20726536E-02 -1.42176257E-16 -3.02022536E-16 -2.01669587E-03
 -3.22638308E-03 -3.22638308E-03  2.48076473E-01 -9.45313507E-01  3.31812825E-15
 -1.34532937E-16  4.25246239E-02 -1.16333297E-01 -1.16333297E-01  7.51967898E-02
 -3.77114375E-01  1.73574151E-14  3.89142588E-15 -7.22216022E-01  3.82310591E-01
  3.82310591E-01  2.46995276E-15 -1.16772616E-14 -6.18078949E-01  3.07080594E-15
 -1.99231331E-14  4.61175227E-01 -4.61175227E-01 -2.37097795E-16  1.15494295E-15
  1.56177123E-15  1.00000000E+00  2.51506359E-15 -2.55851924E-15 -1.56990238E-17
  8.48419375E-02 -4.61789655E-01  2.75912712E-14 -1.24801842E-16  7.31729862E-01
  6.31951973E-01  6.31951973E-01  3.47725321E-15 -1.76803017E-14 -8.52767839E-01
  5.75135345E-17  2.32591724E-14 -6.39984615E-01  6.39984615E-01
Orbital Coefficients CCMAN2 Beta           R   N=          49
  2.48076473E-01 -9.45313507E-01  3.31812825E-15 -1.34532937E-16  4.25246239E-02
 -1.16333297E-01 -1.16333297E-01  7.51967898E-02 -3.77114375E-01  1.73574151E-14
  3.89142588E-15 -7.22216022E-01  3.82310591E-01  3.82310591E-01  2.46995276E-15
 -1.16772616E-14 -6.18078949E-01  3.07080594E-15 -1.99231331E-14  4.61175227E-01
 -4.61175227E-01 -2.37097795E-16  1.15494295E-15  1.56177123E-15  1.00000000E+00
  2.51506359E-15 -2.55851924E-15 -1.56990238E-17  8.48419375E-02 -4.61789655E-01
  2.75912712E-14 -1.24801842E-16  7.31729862E-01  6.31951973E-01  6.31951973E-01
  3.47725321E-15 -1.76803017E-14 -8.52767839E-01  5.75135345E-17  2.32591724E-14
 -6.39984615E-01  6.39984615E-01  9.94728311E-01  2.20726536E-02 -1.42176257E-16
 -3.02022536E-16 -2.01669587E-03 -3.22638308E-03 -3.22638308E-03
EOMEE transition A1 Excitation Energies    R   N=           1
  3.93075161E-01
Number of Active Occ                       I               10
Number of Active Vir                       I                4
Alpha Amplitudes                           R   N=           4
 -5.90240616E-01 -2.83903757E-01 -5.90240616E-01 -2.83903757E-01
Alpha J Indexes                            I   N=           2
           0           4
Alpha I Indexes                            I   N=           4
           8          13          30          35
EOMEE transition A2 Excitation Energies    R   N=           1
  2.48801341E-01
Number of Active Occ                       I               10
Number of Active Vir                       I                4
Alpha Amplitudes                           R   N=           2
 -6.54462875E-01 -6.54462875E-01
Alpha J Indexes                            I   N=           2
           0           2
Alpha I Indexes                            I   N=           2
          17          39
EOMEE transition B1 Excitation Energies    R   N=           1
  4.07047193E-01
Number of Active Occ                       I               10
Number of Active Vir                       I                4
Alpha Amplitudes                           R   N=           4
 -5.05836860E-01 -4.08763694E-01 -5.05836860E-01 -4.08763694E-01
Alpha J Indexes                            I   N=           2
           0           4
Alpha I Indexes                            I   N=           4
           9          12          31          34
EOMEE transition B2 Excitation Energies    R   N=           1
  1.91669504E-01
Number of Active Occ                       I               10
Number of Active Vir                       I                4
Alpha Amplitudes                           R   N=           2
  6.54508031E-01  6.54508031E-01
Alpha J Indexes                            I   N=           2
           0           2
Alpha I Indexes                            I   N=           2
          16          38
EOMEE transition A1 Excitation Energies    R   N=           1
  2.23726000E-01
Number of Active Occ                       I               10
Number of Active Vir                       I                4
Alpha Amplitudes                           R   N=           4
 -6.32733437E-01  3.02688377E-01  6.32733437E-01 -3.02688377E-01
Alpha J Indexes                            I   N=           2
           0           4
Alpha I Indexes                            I   N=           4
           8          13          30          35
EOMEE transition A2 Excitation Energies    R   N=           1
  2.22041057E-01
Number of Active Occ                       I               10
Number of Active Vir                       I                4
Alpha Amplitudes                           R   N=           2
  6.64816926E-01 -6.64816926E-01
Alpha J Indexes                            I   N=           2
           0           2
Alpha I Indexes                            I   N=           2
          17          39
EOMEE transition B1 Excitation Energies    R   N=           1
  2.72629407E-01
Number of Active Occ                       I               10
Number of Active Vir                       I                4
Alpha Amplitudes                           R   N=           4
 -5.09250153E-01  4.77590764E-01  5.09250153E-01 -4.77590764E-01
Alpha J Indexes                            I   N=           2
           0           4
Alpha I Indexes                            I   N=           4
           9          12          31          34
EOMEE transition B2 Excitation Energies    R   N=           1
  1.59884808E-01
Number of Active Occ                       I               10
Number of Active Vir                       I                4
Alpha Amplitudes                           R   N=           2
  6.70524348E-01 -6.70524348E-01
Alpha J Indexes                            I   N=           2
           0           2
Alpha I Indexes                            I   N=           2
          16          38
Number of independent functions            I                7
Alpha MO coefficients                      R   N=          49
  9.94728311E-01  2.20726536E-02 -1.42176257E-16 -3.02022536E-16 -2.01669587E-03
 -3.22638308E-03 -3.22638308E-03  2.48076473E-01 -9.45313507E-01  3.31812825E-15
 -1.34532937E-16  4.25246239E-02 -1.16333297E-01 -1.16333297E-01  2.46995276E-15
 -1.16772616E-14 -6.18078949E-01  3.07080594E-15 -1.99231331E-14  4.61175227E-01
 -4.61175227E-01  7.51967898E-02 -3.77114375E-01  1.73574151E-14  3.89142588E-15
 -7.22216022E-01  3.82310591E-01  3.82310591E-01 -2.37097795E-16  1.15494295E-15
  1.56177123E-15  1.00000000E+00  2.51506359E-15 -2.55851924E-15 -1.56990238E-17
  8.48419375E-02 -4.61789655E-01  2.75912712E-14 -1.24801842E-16  7.31729862E-01
  6.31951973E-01  6.31951973E-01  3.47725321E-15 -1.76803017E-14 -8.52767839E-01
  5.75135345E-17  2.32591724E-14 -6.39984615E-01  6.39984615E-01
Alpha Orbital Energies                     R   N=           7
 -2.02908853E+01 -1.16352320E+00 -4.69500125E-01 -4.05717233E-01 -3.92203839E-01
  3.39673234E-01  4.25540618E-01
Total SCF Density                          R   N=          28
  2.11561193E+00 -4.93218478E-01  2.12935982E+00  1.32741352E-15 -6.75769474E-15
  8.06331605E-01 -5.47696983E-16 -4.11050968E-16 -5.19091810E-16  1.99839224E+00
 -7.95401109E-02  4.03167290E-01 -1.63593253E-16 -1.68024373E-16  9.94136077E-01
  6.33751157E-03 -1.29467191E-01 -4.89876027E-01  5.37819014E-16 -4.93275970E-01
  8.09569159E-01  6.33751157E-03 -1.29467191E-01  4.89876027E-01  2.66964309E-16
 -4.93275970E-01 -6.94826110E-02  8.09569159E-01
Pure Switching                             I                1
Dipole_Data                                R   N=           3
  1.18906037E-14  6.76948824E-16 -9.50495862E-01
Quadrupole_Data                            R   N=           6
 -4.67546866E+00  5.43000038E-16 -6.33592793E+00  4.23218208E-15  4.69623856E-16
 -5.47855962E+00
Octapole_Data                              R   N=          10
 -4.52320614E-16 -1.27953411E-16  8.89646641E-16  1.39414849E-16 -4.29851317E-01
  1.22164049E-17  2.37536371E-01  1.35398998E-15  7.70758274E-17  6.38654587E-01
Hexadecapole_Data                          R   N=          15
 -1.14315692E+01  4.30750813E-17 -2.75085438E+00 -4.91979621E-17 -3.52893939E+00
  3.79408573E-16  6.86197384E-17 -1.22152513E-16 -5.67476330E-17 -2.78443745E+00
  2.82844614E-17 -1.86524494E+00  2.38160732E-16 -4.80993802E-18 -7.29822938E+00
