Jobname.Temp
SP        R                             STO-3G              
Number of atoms                            I                3
Charge                                     I                0
Multiplicity                               I                1
Number of electrons                        I               10
Number of alpha electrons                  I                5
Number of beta electrons                   I                5
Atomic numbers                             I   N=           3
           8           1           1
Current cartesian coordinates              R   N=           9
 -8.32667268E-17  2.91269267E-17  3.00799977E-01 -1.94244277E+00 -2.08753705E-16
 -1.20319991E+00  1.94244277E+00 -2.42617083E-17 -1.20319991E+00
Nuclear charges                            R   N=           3
  8.00000000E+00  1.00000000E+00  1.00000000E+00
Number of basis functions                  I                7
Number of contracted shells                I                4
Number of primitive shells                 I               12
Highest angular momentum                   I                1
Largest degree of contraction              I                3
Shell types                                I   N=           4
           0          -1           0           0
Number of primitives per shell             I   N=           4
           3           3           3           3
Shell to atom map                          I   N=           4
           1           1           2           3
Primitive exponents                        R   N=          12
  1.30709320E+02  2.38088610E+01  6.44360830E+00  5.03315130E+00  1.16959610E+00
  3.80389000E-01  3.42525091E+00  6.23913730E-01  1.68855400E-01  3.42525091E+00
  6.23913730E-01  1.68855400E-01
Contraction coefficients                   R   N=          12
  1.54328969E-01  5.35328136E-01  4.44634536E-01 -9.99672287E-02  3.99512825E-01
  7.00115461E-01  1.54328971E-01  5.35328142E-01  4.44634542E-01  1.54328971E-01
  5.35328142E-01  4.44634542E-01
P(S=P) Contraction coefficients            R   N=          12
  0.00000000E+00  0.00000000E+00  0.00000000E+00  1.55916268E-01  6.07683714E-01
  3.91957386E-01  0.00000000E+00  0.00000000E+00  0.00000000E+00  0.00000000E+00
  0.00000000E+00  0.00000000E+00
Coordinates of each shell                  R   N=          12
 -8.32667268E-17  2.91269267E-17  3.00799977E-01 -8.32667268E-17  2.91269267E-17
  3.00799977E-01 -1.94244277E+00 -2.08753705E-16 -1.20319991E+00  1.94244277E+00
 -2.42617083E-17 -1.20319991E+00
Overlap Matrix                             R   N=          28
  1.00000000E+00  2.36703937E-01  1.00000000E+00  7.75396266E-33 -1.09576590E-32
  1.00000000E+00 -1.62298294E-33  5.47882949E-33 -7.70905059E-65  1.00000000E+00
 -1.88546251E-17  4.03922881E-17 -6.94369547E-49  3.47184774E-49  1.00000000E+00
  2.40528181E-02  2.81001604E-01 -2.09489910E-01 -2.56551148E-17 -1.62204419E-01
  1.00000000E+00  2.40528181E-02  2.81001604E-01  2.09489910E-01 -5.75789441E-18
 -1.62204419E-01  1.08709054E-01  1.00000000E+00
Core Hamiltonian Matrix                    R   N=          28
 -3.24293737E+01 -7.54379551E+00 -9.05692904E+00  0.00000000E+00  0.00000000E+00
 -7.29732994E+00  0.00000000E+00  0.00000000E+00  0.00000000E+00 -7.22482760E+00
  1.03049491E-02  1.28849639E-01  0.00000000E+00  0.00000000E+00 -7.26829375E+00
 -7.73500908E-01 -2.00355214E+00  1.23513794E+00 -8.84157506E-18  9.82551317E-01
 -3.95002327E+00 -7.73500908E-01 -2.00355214E+00 -1.23513794E+00 -1.98435501E-18
  9.82551317E-01 -5.82322830E-01 -3.95002327E+00
Orbital Coefficients CCMAN2 Alpha          R   N=          49
  9.94728311E-01  2.20726536E-02 -5.12448157E-16 -1.78574703E-16 -2.01669587E-03
 -3.22638308E-03 -3.22638308E-03  2.48076473E-01 -9.45313507E-01  5.20417043E-17
  6.32090451E-18  4.25246239E-02 -1.16333297E-01 -1.16333297E-01 -7.51967898E-02
  3.77114375E-01 -1.41067713E-14 -2.60421273E-14  7.22216022E-01 -3.82310591E-01
 -3.82310591E-01 -1.72431514E-15  8.71525074E-15  6.18078949E-01 -2.00852589E-15
  1.83394966E-14 -4.61175227E-01  4.61175227E-01  1.93859288E-15 -9.75330649E-15
 -1.20324945E-15 -1.00000000E+00 -1.85973188E-14  1.05228984E-14  9.13732888E-15
  8.48419375E-02 -4.61789655E-01  2.65065747E-15 -2.28022530E-16  7.31729862E-01
  6.31951973E-01  6.31951973E-01  1.89952221E-16 -1.63757896E-15 -8.52767839E-01
  2.75123242E-16  3.74006381E-15 -6.39984615E-01  6.39984615E-01
Orbital Coefficients CCMAN2 Beta           R   N=          49
  2.48076473E-01 -9.45313507E-01  5.20417043E-17  6.32090451E-18  4.25246239E-02
 -1.16333297E-01 -1.16333297E-01 -7.51967898E-02  3.77114375E-01 -1.41067713E-14
 -2.60421273E-14  7.22216022E-01 -3.82310591E-01 -3.82310591E-01 -1.72431514E-15
  8.71525074E-15  6.18078949E-01 -2.00852589E-15  1.83394966E-14 -4.61175227E-01
  4.61175227E-01  1.93859288E-15 -9.75330649E-15 -1.20324945E-15 -1.00000000E+00
 -1.85973188E-14  1.05228984E-14  9.13732888E-15  8.48419375E-02 -4.61789655E-01
  2.65065747E-15 -2.28022530E-16  7.31729862E-01  6.31951973E-01  6.31951973E-01
  1.89952221E-16 -1.63757896E-15 -8.52767839E-01  2.75123242E-16  3.74006381E-15
 -6.39984615E-01  6.39984615E-01  9.94728311E-01  2.20726536E-02 -5.12448157E-16
 -1.78574703E-16 -2.01669587E-03 -3.22638308E-03 -3.22638308E-03
EOMEE transition A1 Excitation Energies    R   N=           1
  3.93130998E-01
Number of Active Occ                       I                8
Number of Active Vir                       I                4
Alpha Amplitudes                           R   N=           4
  5.90217217E-01  2.84440668E-01  5.90217217E-01  2.84440668E-01
Alpha J Indexes                            I   N=           2
           0           4
Alpha I Indexes                            I   N=           4
           4           9          22          27
EOMEE transition A2 Excitation Energies    R   N=           1
  2.48766819E-01
Number of Active Occ                       I                8
Number of Active Vir                       I                4
Alpha Amplitudes                           R   N=           2
  6.54490557E-01  6.54490557E-01
Alpha J Indexes                            I   N=           2
           0           2
Alpha I Indexes                            I   N=           2
          13          31
EOMEE transition B1 Excitation Energies    R   N=           1
  4.07044358E-01
Number of Active Occ                       I                8
Number of Active Vir                       I                4
Alpha Amplitudes                           R   N=           4
 -5.05723594E-01 -4.08816297E-01 -5.05723594E-01 -4.08816297E-01
Alpha J Indexes                            I   N=           2
           0           4
Alpha I Indexes                            I   N=           4
           5           8          23          26
EOMEE transition B2 Excitation Energies    R   N=           1
  1.91669152E-01
Number of Active Occ                       I                8
Number of Active Vir                       I                4
Alpha Amplitudes                           R   N=           2
  6.54513175E-01  6.54513175E-01
Alpha J Indexes                            I   N=           2
           0           2
Alpha I Indexes                            I   N=           2
          12          30
EOMEE transition A1 Excitation Energies    R   N=           1
  2.23729214E-01
Number of Active Occ                       I                8
Number of Active Vir                       I                4
Alpha Amplitudes                           R   N=           4
  6.32717149E-01 -3.02564070E-01 -6.32717149E-01  3.02564070E-01
Alpha J Indexes                            I   N=           2
           0           4
Alpha I Indexes                            I   N=           4
           4           9          22          27
EOMEE transition A2 Excitation Energies    R   N=           1
  2.22034417E-01
Number of Active Occ                       I                8
Number of Active Vir                       I                4
Alpha Amplitudes                           R   N=           2
 -6.64819794E-01  6.64819794E-01
Alpha J Indexes                            I   N=           2
           0           2
Alpha I Indexes                            I   N=           2
          13          31
EOMEE transition B1 Excitation Energies    R   N=           1
  2.72597390E-01
Number of Active Occ                       I                8
Number of Active Vir                       I                4
Alpha Amplitudes                           R   N=           4
 -5.09819743E-01  4.77364921E-01  5.09819743E-01 -4.77364921E-01
Alpha J Indexes                            I   N=           2
           0           4
Alpha I Indexes                            I   N=           4
           5           8          23          26
EOMEE transition B2 Excitation Energies    R   N=           1
  1.59888258E-01
Number of Active Occ                       I                8
Number of Active Vir                       I                4
Alpha Amplitudes                           R   N=           2
  6.70532181E-01 -6.70532181E-01
Alpha J Indexes                            I   N=           2
           0           2
Alpha I Indexes                            I   N=           2
          12          30
Number of independent functions            I                7
Alpha MO coefficients                      R   N=          49
  9.94728311E-01  2.20726536E-02 -5.12448157E-16 -1.78574703E-16 -2.01669587E-03
 -3.22638308E-03 -3.22638308E-03  2.48076473E-01 -9.45313507E-01  5.20417043E-17
  6.32090451E-18  4.25246239E-02 -1.16333297E-01 -1.16333297E-01 -1.72431514E-15
  8.71525074E-15  6.18078949E-01 -2.00852589E-15  1.83394966E-14 -4.61175227E-01
  4.61175227E-01 -7.51967898E-02  3.77114375E-01 -1.41067713E-14 -2.60421273E-14
  7.22216022E-01 -3.82310591E-01 -3.82310591E-01  1.93859288E-15 -9.75330649E-15
 -1.20324945E-15 -1.00000000E+00 -1.85973188E-14  1.05228984E-14  9.13732888E-15
  8.48419375E-02 -4.61789655E-01  2.65065747E-15 -2.28022530E-16  7.31729862E-01
  6.31951973E-01  6.31951973E-01  1.89952221E-16 -1.63757896E-15 -8.52767839E-01
  2.75123242E-16  3.74006381E-15 -6.39984615E-01  6.39984615E-01
Alpha Orbital Energies                     R   N=           7
 -2.02908853E+01 -1.16352320E+00 -4.69500125E-01 -4.05717233E-01 -3.92203839E-01
  3.39673234E-01  4.25540618E-01
Total SCF Density                          R   N=          28
  2.11556630E+00 -4.93114133E-01  2.12935934E+00 -8.38830788E-16 -6.83838693E-16
  8.06399971E-01 -2.38716212E-16 -4.04227931E-16  2.77749376E-18  1.99838486E+00
 -7.96606994E-02  4.03150154E-01  2.72126880E-15  2.49847882E-15  9.94163500E-01
  6.28349116E-03 -1.29461317E-01 -4.89854204E-01  4.65276624E-16 -4.93260760E-01
  8.09535392E-01  6.28349116E-03 -1.29461317E-01  4.89854204E-01 -2.38965279E-16
 -4.93260760E-01 -6.94706982E-02  8.09535392E-01
Pure Switching                             I                1
Dipole_Data                                R   N=           3
 -7.59239193E-15  1.11299315E-15 -9.50720686E-01
Quadrupole_Data                            R   N=           6
 -4.67510048E+00  2.55028167E-16 -6.33589001E+00  6.91199167E-15 -1.72541239E-15
 -5.47839491E+00
Octapole_Data                              R   N=          10
 -1.91033325E-14  3.39828441E-17 -1.41989035E-15  4.13643980E-16 -4.30134028E-01
 -7.45606716E-17  2.37495626E-01 -8.75773688E-15 -4.99076738E-16  6.38439114E-01
Hexadecapole_Data                          R   N=          15
 -1.14307667E+01 -6.73962669E-20 -2.75077708E+00 -1.18193254E-16 -3.52889643E+00
  1.25796898E-14 -1.94002987E-16  7.88396524E-16 -7.98246425E-16 -2.78419552E+00
  4.55740301E-19 -1.86520822E+00  6.30989530E-15 -9.12479802E-16 -7.29800217E+00
