                  Welcome to Q-Chem
     A Quantum Leap Into The Future Of Chemistry


 Q-Chem 5.4 (devel), Q-Chem, Inc., Pleasanton, CA (2021)

 E. Epifanovsky,  A. T. B. Gilbert,  Xintian Feng,  Joonho Lee,  Yuezhi Mao,  
 N. Mardirossian,  P. Pokhilko,  A. White,  M. Wormit,  M. P. Coons,  
 A. L. Dempwolff,  Zhengting Gan,  D. Hait,  P. R. Horn,  L. D. Jacobson,  
 I. Kaliman,  J. Kussmann,  A. W. Lange,  Ka Un Lao,  D. S. Levine,  Jie Liu,  
 S. C. McKenzie,  A. F. Morrison,  K. Nanda,  F. Plasser,  D. R. Rehn,  
 M. L. Vidal,  Zhi-Qiang You,  Ying Zhu,  B. Alam,  B. Albrecht,  
 A. Aldossary,  E. Alguire,  J. H. Andersen,  D. Barton,  K. Begam,  A. Behn,  
 Y. A. Bernard,  E. J. Berquist,  H. Burton,  A. Carreras,  K. Carter-Fenk,  
 R. Chakraborty,  A. D. Chien,  K. D. Closser,  V. Cofer-Shabica,  
 S. Dasgupta,  Jia Deng,  M. de Wergifosse,  M. Diedenhofen,  Hainam Do,  
 S. Ehlert,  Po-Tung Fang,  S. Fatehi,  Qingguo Feng,  T. Friedhoff,  
 J. Gayvert,  Qinghui Ge,  G. Gidofalvi,  M. Goldey,  J. Gomes,  
 C. Gonzalez-Espinoza,  S. Gulania,  A. Gunina,  M. W. D. Hanson-Heine,  
 P. H. P. Harbach,  A. W. Hauser,  M. F. Herbst,  M. Hernandez Vera,  
 M. Hodecker,  Z. C. Holden,  S. Houck,  Xunkun Huang,  Kerwin Hui,  
 B. C. Huynh,  M. Ivanov,  Hyunjun Ji,  Hanjie Jiang,  B. Kaduk,  S. Kaehler,  
 K. Khistyaev,  Jaehoon Kim,  P. Klunzinger,  Z. Koczor-Benda,  
 Joong Hoon Koh,  D. Kosenkov,  L. Koulias,  T. Kowalczyk,  C. M. Krauter,  
 K. Kue,  A. Kunitsa,  T. Kus,  A. Landau,  K. V. Lawler,  D. Lefrancois,  
 S. Lehtola,  Rain Li,  Yi-Pei Li,  Jiashu Liang,  M. Liebenthal,  
 Hung-Hsuan Lin,  You-Sheng Lin,  Fenglai Liu,  Kuan-Yu Liu,  
 M. Loipersberger,  A. Luenser,  A. Manjanath,  P. Manohar,  E. Mansoor,  
 S. F. Manzer,  Shan-Ping Mao,  A. V. Marenich,  T. Markovich,  S. Mason,  
 S. A. Maurer,  P. F. McLaughlin,  M. F. S. J. Menger,  J.-M. Mewes,  
 S. A. Mewes,  P. Morgante,  J. W. Mullinax,  K. J. Oosterbaan,  G. Paran,  
 Alexander C. Paul,  Suranjan K. Paul,  F. Pavosevic,  Zheng Pei,  S. Prager,  
 E. I. Proynov,  E. Ramos,  B. Rana,  A. E. Rask,  A. Rettig,  R. M. Richard,  
 F. Rob,  E. Rossomme,  T. Scheele,  M. Scheurer,  M. Schneider,  
 N. Sergueev,  S. M. Sharada,  W. Skomorowski,  D. W. Small,  C. J. Stein,  
 Yu-Chuan Su,  E. J. Sundstrom,  Zhen Tao,  J. Thirman,  T. Tsuchimochi,  
 N. M. Tubman,  S. P. Veccham,  O. Vydrov,  J. Wenzel,  J. Witte,  A. Yamada,  
 Kun Yao,  S. Yeganeh,  S. R. Yost,  A. Zech,  Igor Ying Zhang,  Xing Zhang,  
 Yu Zhang,  D. Zuev,  A. Aspuru-Guzik,  A. T. Bell,  N. A. Besley,  
 K. B. Bravaya,  B. R. Brooks,  D. Casanova,  Jeng-Da Chai,  S. Coriani,  
 C. J. Cramer,  A. E. DePrince, III,  R. A. DiStasio Jr.,  A. Dreuw,  
 B. D. Dunietz,  T. R. Furlani,  W. A. Goddard III,  S. Grimme,  
 S. Hammes-Schiffer,  T. Head-Gordon,  W. J. Hehre,  Chao-Ping Hsu,  
 T.-C. Jagau,  Yousung Jung,  A. Klamt,  Jing Kong,  D. S. Lambrecht,  
 WanZhen Liang,  N. J. Mayhall,  C. W. McCurdy,  J. B. Neaton,  
 C. Ochsenfeld,  J. A. Parkhill,  R. Peverati,  V. A. Rassolov,  Yihan Shao,  
 L. V. Slipchenko,  T. Stauch,  R. P. Steele,  J. E. Subotnik,  
 A. J. W. Thom,  A. Tkatchenko,  D. G. Truhlar,  T. Van Voorhis,  
 T. A. Wesolowski,  K. B. Whaley,  H. L. Woodcock III,  P. M. Zimmerman,  
 S. Faraji,  P. M. W. Gill,  M. Head-Gordon,  J. M. Herbert,  A. I. Krylov

 Additional authors for Version 5.4.1: 
 S. Kotaru,  Shaozhi Li,  Xiangyuan Li,  F. Matz,  A. Molle,  Haisheng Ren,  
 Yingli Su,  Hung-Yi Tsai,  C. Utku,  Fang Wang

 Contributors to earlier versions of Q-Chem not listed above: 
 R. D. Adamson,  B. Austin,  R. Baer,  J. Baker,  G. J. O. Beran,  
 K. Brandhorst,  S. T. Brown,  E. F. C. Byrd,  A. K. Chakraborty,  
 G. K. L. Chan,  Chun-Min Chang,  Yunqing Chen,  C.-L. Cheng,  
 Siu Hung Chien,  D. M. Chipman,  D. L. Crittenden,  H. Dachsel,  
 R. J. Doerksen,  A. D. Dutoi,  R. G. Edgar,  J. Fosso-Tande,  
 L. Fusti-Molnar,  D. Ghosh,  A. Ghysels,  A. Golubeva-Zadorozhnaya,  
 J. Gonthier,  M. S. Gordon,  S. R. Gwaltney,  G. Hawkins,  J. E. Herr,  
 A. Heyden,  S. Hirata,  E. G. Hohenstein,  G. Kedziora,  F. J. Keil,  
 C. Kelley,  Jihan Kim,  R. A. King,  R. Z. Khaliullin,  P. P. Korambath,  
 W. Kurlancheek,  A. Laurent,  A. M. Lee,  M. S. Lee,  S. V. Levchenko,  
 Ching Yeh Lin,  D. Liotard,  E. Livshits,  R. C. Lochan,  I. Lotan,  
 L. A. Martinez-Martinez,  P. E. Maslen,  N. Nair,  D. P. O'Neill,  
 D. Neuhauser,  E. Neuscamman,  C. M. Oana,  R. Olivares-Amaya,  R. Olson,  
 T. M. Perrine,  B. Peters,  P. A. Pieniazek,  A. Prociuk,  Y. M. Rhee,  
 J. Ritchie,  M. A. Rohrdanz,  E. Rosta,  N. J. Russ,  H. F. Schaefer III,  
 M. W. Schmidt,  N. E. Schultz,  S. Sharma,  N. Shenvi,  C. D. Sherrill,  
 A. C. Simmonett,  A. Sodt,  T. Stein,  D. Stuck,  K. S. Thanthiriwatte,  
 V. Vanovschi,  L. Vogt,  Tao Wang,  A. Warshel,  M. A. Watson,  
 C. F. Williams,  Q. Wu,  X. Xu,  Jun Yang,  W. Zhang,  Yan Zhao

 Please cite Q-Chem as follows:
 Y. Shao et al., Mol. Phys. 113, 184-215 (2015)
 DOI: 10.1080/00268976.2014.952696

 Q-Chem 5.4.1 for Intel X86 EM64T Linux

 Parts of Q-Chem use Armadillo 9.900.5 (Nocturnal Misbehaviour).
 http://arma.sourceforge.net/

 Q-Chem begins on Mon Sep  5 11:53:02 2022  

orc34
 Host: 0

     Scratch files written to /scratch/yongbin/qchem26304//
 Processing $rem in /home/users/yongbin/software/yongbin_quantum/config/preferences:
 Processing $rem in /home/users/yongbin/.qchemrc:
 Core orbitals will be frozen

 Checking the input file for inconsistencies... 	...done.

--------------------------------------------------------------
User input:
--------------------------------------------------------------
$comment
Water molecule
$end

$molecule
0 1
O
H O 1.3
H O 1.3 H 104.5
$end

$rem
!   n_frozen_core = 0
   print_qis = true
   BASIS                = sto-3g
!   SYMMETRY             = true
!   CC_SYMMETRY          = false
   METHOD               = eom-ccsd
   EE_SINGLETS          = [1,1,1,1] ! Compute two EOM-EE singlet excited states
   EE_TRIPLETS          = [1,1,1,1] ! Compute two EOM-EE triplet excited states
   CC_REF_PROP          = true ! Compute ground state properties
   CC_EOM_PROP          = true ! Compute excited state properties
!   CC_OSFNO             = true
   GUI                  = 2
$end
--------------------------------------------------------------
 ----------------------------------------------------------------
             Standard Nuclear Orientation (Angstroms)
    I     Atom           X                Y                Z
 ----------------------------------------------------------------
    1      O      -0.0000000000     0.0000000000     0.1591764928
    2      H      -1.0278964459    -0.0000000000    -0.6367059712
    3      H       1.0278964459    -0.0000000000    -0.6367059712
 ----------------------------------------------------------------
 Molecular Point Group                 C2v   NOp =  4
 Largest Abelian Subgroup              C2v   NOp =  4
 Nuclear Repulsion Energy =           6.77035813 hartrees
 There are        5 alpha and        5 beta electrons
 Requested basis set is STO-3G
 There are 4 shells and 7 basis functions
 Total memory of 2000 MB is distributed as follows: 
   MEM_STATIC is set to 192 MB
   QALLOC/CCMAN JOB total memory use is  1808 MB
 Warning: actual memory use might exceed 2000 MB

 Total QAlloc Memory Limit   2000 MB
 Mega-Array Size       188 MB
 MEM_STATIC part       192 MB

                       Distance Matrix (Angstroms)
             O (  1)   H (  2)
   H (  2)  1.300000
   H (  3)  1.300000  2.055793

 A cutoff of  1.0D-14 yielded     10 shell pairs
 There are        34 function pairs
 Smallest overlap matrix eigenvalue = 5.49E-01

 Scale SEOQF with 1.000000e+00/1.000000e+00/1.000000e+00

 Standard Electronic Orientation quadrupole field applied
 Nucleus-field energy     =    -0.0000000003 hartrees
 Guess from superposition of atomic densities
 Warning:  Energy on first SCF cycle will be non-variational
 SAD guess density has 10.000000 electrons

 -----------------------------------------------------------------------
  General SCF calculation program by
  Eric Jon Sundstrom, Paul Horn, Yuezhi Mao, Dmitri Zuev, Alec White,
  David Stuck, Shaama M.S., Shane Yost, Joonho Lee, David Small,
  Daniel Levine, Susi Lehtola, Hugh Burton, Evgeny Epifanovsky,
  Bang C. Huynh
 -----------------------------------------------------------------------
 Hartree-Fock
 using 16 threads for integral computing
 -------------------------------------------------------
 OpenMP Integral computing Module                
 Release: version 1.0, May 2013, Q-Chem Inc. Pittsburgh 
 -------------------------------------------------------
 A restricted SCF calculation will be
 performed using DIIS
 SCF converges when DIIS error is below 1.0e-08
 ---------------------------------------
  Cycle       Energy         DIIS error
 ---------------------------------------
    1     -74.0748038206      2.00e-01  
    2     -74.7585304802      8.36e-02  
    3     -74.8315671327      2.16e-02  
    4     -74.8361157750      1.27e-03  
    5     -74.8361339111      1.95e-04  
    6     -74.8361345835      8.41e-05  
    7     -74.8361348178      4.41e-07  
    8     -74.8361348178      1.03e-09  Convergence criterion met
 ---------------------------------------
 SCF time:   CPU 0.97s  wall 2.00s 
 SCF   energy in the final basis set =      -74.8361348178
 Total energy in the final basis set =      -74.8361348178


 ------------------------------------------------------------------------------

   CCMAN2: suite of methods based on coupled cluster
           and equation of motion theories.

   Components:
   * libvmm-1.3-trunk
     by Evgeny Epifanovsky, Ilya Kaliman.
   * libtensor-2.5-trunk
     by Evgeny Epifanovsky, Michael Wormit, Dmitry Zuev, Sam Manzer, 
        Ilya Kaliman.
   * libcc-2.5-trunk
     by Evgeny Epifanovsky, Arik Landau, Tomasz Kus, Kirill Khistyaev, 
        Dmitry Zuev, Prashant Manohar, Xintian Feng, Anna Krylov, 
        Matthew Goldey, Alec White, Thomas Jagau, Kaushik Nanda, 
        Anastasia Gunina, Alexander Kunitsa, Joonho Lee.

   CCMAN original authors:
   Anna I. Krylov, C. David Sherrill, Steven R. Gwaltney,
   Edward F. C. Byrd (2000)
   Sergey V. Levchenko, Lyudmila V. Slipchenko, Tao Wang,
   Ana-Maria C. Cristian (2003)
   Piotr A. Pieniazek, C. Melania Oana, Evgeny Epifanovsky (2007)
   Prashant Manohar (2009)

 ------------------------------------------------------------------------------


 Allocating and initializing 1808MB of RAM...
 Calculation will run on 16 cores.


 Alpha MOs, Restricted
 -- Occupied --                  
-20.291  -1.164  -0.470  -0.406  -0.392
  1 A1    2 A1    1 B1    3 A1    1 B2                                         
 -- Virtual --                   
  0.340   0.426
  4 A1    2 B1                                                                 

 Beta MOs, Restricted
 -- Occupied --                  
-20.291  -1.164  -0.470  -0.406  -0.392
  1 A1    2 A1    1 B1    3 A1    1 B2                                         
 -- Virtual --                   
  0.340   0.426
  4 A1    2 B1                                                                 

 Occupation and symmetry of molecular orbitals

 Point group: C2v (4 irreducible representations).

                           A1   A2   B1   B2    All 
 ----------------------------------------------------
 All molecular orbitals:
  - Alpha                  4    0    2    1     7   
  - Beta                   4    0    2    1     7   
 ----------------------------------------------------
 Alpha orbitals:
  - Frozen occupied        1    0    0    0     1   
  - Active occupied        2    0    1    1     4   
  - Active virtual         1    0    1    0     2   
  - Frozen virtual         0    0    0    0     0   
 ----------------------------------------------------
 Beta orbitals:
  - Frozen occupied        1    0    0    0     1   
  - Active occupied        2    0    1    1     4   
  - Active virtual         1    0    1    0     2   
  - Frozen virtual         0    0    0    0     0   
 ----------------------------------------------------

 Import integrals:   CPU 0.00 s  wall 0.00 s

 Import integrals:   CPU 0.71 s  wall 1.16 s

 Run QIS:   CPU 0.01 s  wall 0.01 s

 MP2 amplitudes:   CPU 0.03 s  wall 0.02 s

Running a double precision version
           CCSD T amplitudes will be solved using DIIS.

           Start     Size      MaxIter   EConv     TConv     
           3         7         100       1.00e-06  1.00e-04  
 ------------------------------------------------------------------------------
           Energy (a.u.)   Ediff      Tdiff       Comment
 ------------------------------------------------------------------------------
           -74.91122553                           
     1     -74.93230881   2.11e-02   2.74e-01     
     2     -74.94050974   8.20e-03   7.43e-02     
     3     -74.94429889   3.79e-03   3.33e-02     
     4     -74.94796777   3.67e-03   2.88e-02     Switched to DIIS steps.
     5     -74.94810330   1.36e-04   4.34e-03     
     6     -74.94816563   6.23e-05   1.30e-03     
     7     -74.94816693   1.30e-06   2.32e-04     
     8     -74.94816617   7.60e-07   9.60e-05     
 ------------------------------------------------------------------------------
           -74.94816617                           CCSD T converged.

End of double precision
 SCF energy                 = -74.83613482
 MP2 energy                 = -74.91122553
 CCSD correlation energy    =  -0.11203136
 CCSD total energy          = -74.94816617

 CCSD  T1^2 = 0.0027  T2^2 = 0.1069  Leading amplitudes:

 Amplitude    Orbitals with energies
 -0.0348509119       3 (A1) A                  ->    4 (A1) A                   
                    -0.4057                          0.3397                     
 -0.0348509119       3 (A1) B                  ->    4 (A1) B                   
                    -0.4057                          0.3397                     
  0.0107569195       2 (A1) A                  ->    4 (A1) A                   
                    -1.1635                          0.3397                     
  0.0107569195       2 (A1) B                  ->    4 (A1) B                   
                    -1.1635                          0.3397                     

 Amplitude    Orbitals with energies
 -0.1444517450       3 (A1) A      3 (A1) B    ->    4 (A1) A      4 (A1) B     
                    -0.4057       -0.4057            0.3397        0.3397       
  0.1444517450       3 (A1) A      3 (A1) B    ->    4 (A1) B      4 (A1) A     
                    -0.4057       -0.4057            0.3397        0.3397       
  0.1444517450       3 (A1) B      3 (A1) A    ->    4 (A1) A      4 (A1) B     
                    -0.4057       -0.4057            0.3397        0.3397       
 -0.1444517450       3 (A1) B      3 (A1) A    ->    4 (A1) B      4 (A1) A     
                    -0.4057       -0.4057            0.3397        0.3397       
 -0.1410318315       1 (B1) A      1 (B1) B    ->    2 (B1) A      2 (B1) B     
                    -0.4695       -0.4695            0.4255        0.4255       
  0.1410318315       1 (B1) A      1 (B1) B    ->    2 (B1) B      2 (B1) A     
                    -0.4695       -0.4695            0.4255        0.4255       
  0.1410318315       1 (B1) B      1 (B1) A    ->    2 (B1) A      2 (B1) B     
                    -0.4695       -0.4695            0.4255        0.4255       
 -0.1410318315       1 (B1) B      1 (B1) A    ->    2 (B1) B      2 (B1) A     
                    -0.4695       -0.4695            0.4255        0.4255       
  0.1130520016       3 (A1) A      1 (B1) B    ->    4 (A1) A      2 (B1) B     
                    -0.4057       -0.4695            0.3397        0.4255       
 -0.1130520016       3 (A1) A      1 (B1) B    ->    2 (B1) B      4 (A1) A     
                    -0.4057       -0.4695            0.4255        0.3397       
  0.1130520016       1 (B1) A      3 (A1) B    ->    2 (B1) A      4 (A1) B     
                    -0.4695       -0.4057            0.4255        0.3397       
 -0.1130520016       1 (B1) A      3 (A1) B    ->    4 (A1) B      2 (B1) A     
                    -0.4695       -0.4057            0.3397        0.4255       
 -0.1130520016       3 (A1) B      1 (B1) A    ->    2 (B1) A      4 (A1) B     
                    -0.4057       -0.4695            0.4255        0.3397       
  0.1130520016       3 (A1) B      1 (B1) A    ->    4 (A1) B      2 (B1) A     
                    -0.4057       -0.4695            0.3397        0.4255       
 -0.1130520016       1 (B1) B      3 (A1) A    ->    4 (A1) A      2 (B1) B     
                    -0.4695       -0.4057            0.3397        0.4255       
  0.1130520016       1 (B1) B      3 (A1) A    ->    2 (B1) B      4 (A1) A     
                    -0.4695       -0.4057            0.4255        0.3397       

 Computing CCSD intermediates for later calculations in double precision
 Finished.

Running a double precision version
           CCSD Lambda amplitudes will be solved using DIIS.
           Start     Size      MaxIter   EConv     LConv     
           3         7         100       1.00e-06  1.00e-04  
 ------------------------------------------------------------------------------
            Enorm      Ldiff       Comment
 ------------------------------------------------------------------------------
     1     2.92e-02   2.24e-02     
     2     6.52e-03   5.83e-03     
     3     2.83e-03   2.24e-03     
     4     6.75e-04   1.60e-03     Switched to DIIS steps.
     5     1.56e-04   3.94e-04     
     6     3.31e-05   2.04e-05     
     7     5.25e-06   8.38e-07     
     8     1.23e-06   7.62e-07     
     9     3.09e-07   3.16e-08     
 ------------------------------------------------------------------------------
                                   CCSD Lambda converged.

 Computing density matrices in double precision...
 Computing density matrices... Done.
 Reference state properties
 Dipole moment (a.u.): 0.374042 (X 0.000000, Y 0.000000, Z -0.374042)
 R-squared (a.u.): 23.424847 (XX 11.021991, YY 4.710579, ZZ 7.692277)
 Gauge origin (a.u.): (0.000000, 0.000000, 0.000000)
 Angular momentum (a.u.) against gauge origin: 
 (X 0.000000i, Y 0.000000i, Z 0.000000i)
 Traces of the OPDMs: Tr(AA) 5.000000, Tr(BB) 5.000000
 Density matrix was written to a file for further analysis.

 CCSD calculation:   CPU 5.25 s  wall 2.24 s

        Solving for EOMEE-CCSD A1 singlet states.

Running a double precision version
        EOMEE-CCSD/MP2 right amplitudes will be solved using Davidson.
        Amplitudes will be solved using standard  algorithm.
     Hard-coded thresholds: 
     LinDepThresh=1.00e-15  NormThresh=1.00e-06  ReorthogonThresh=1.00e-02

      Roots     MaxVec    MaxIter   Precond   Conv      Shift    
      1         120       60        1         1.00e-05  0.00e+00  
 ------------------------------------------------------------------------------
      Iter ConvRoots NVecs ResNorm Current eigenvalues (eV)
 ------------------------------------------------------------------------------
      0    0      1     7.59e-02   14.7187   
      1    0      2     4.34e-02   12.1695   
      2    0      3     4.60e-03   10.8877   
      3    0      4     9.30e-04   10.7283   
      4    0      5     2.21e-04   10.7085   
      5    0      6     1.01e-04   10.6989   
      6    0      7     2.66e-05   10.6957   
      7    1      8     5.34e-06   10.6976*  

     Davidson procedure converged

 EOMEE transition 1/A1
 Total energy = -74.55503518 a.u.  Excitation energy = 10.69763852 eV.
 R0^2 = 0.0063  R1^2 = 0.8682  R2^2 = 0.1318  Res^2 = 5.34e-06
 Conv-d = yes

 Amplitude    Transitions between orbitals
  0.5902172172       3 (A1) A                  ->    4 (A1) A                   
  0.5902172172       3 (A1) B                  ->    4 (A1) B                   
  0.2844406676       1 (B1) A                  ->    2 (B1) A                   
  0.2844406676       1 (B1) B                  ->    2 (B1) B                   
 -0.0696540241       2 (A1) A                  ->    4 (A1) A                   
 -0.0696540241       2 (A1) B                  ->    4 (A1) B                   
 -0.2004742690       1 (B1) A      1 (B1) B    ->    4 (A1) A      4 (A1) B     
  0.2004742690       1 (B1) A      1 (B1) B    ->    4 (A1) B      4 (A1) A     
  0.2004742690       1 (B1) B      1 (B1) A    ->    4 (A1) A      4 (A1) B     
 -0.2004742690       1 (B1) B      1 (B1) A    ->    4 (A1) B      4 (A1) A     
  0.1810838830       3 (A1) A      3 (A1) B    ->    4 (A1) A      4 (A1) B     
 -0.1810838830       3 (A1) A      3 (A1) B    ->    4 (A1) B      4 (A1) A     
 -0.1810838830       3 (A1) B      3 (A1) A    ->    4 (A1) A      4 (A1) B     
  0.1810838830       3 (A1) B      3 (A1) A    ->    4 (A1) B      4 (A1) A     
  0.1723981072       3 (A1) A      3 (A1) B    ->    2 (B1) A      2 (B1) B     
 -0.1723981072       3 (A1) A      3 (A1) B    ->    2 (B1) B      2 (B1) A     
 -0.1723981072       3 (A1) B      3 (A1) A    ->    2 (B1) A      2 (B1) B     
  0.1723981072       3 (A1) B      3 (A1) A    ->    2 (B1) B      2 (B1) A     
 -0.0648213090       3 (A1) A      1 (B1) B    ->    2 (B1) A      4 (A1) B     
  0.0648213090       3 (A1) A      1 (B1) B    ->    4 (A1) B      2 (B1) A     
 -0.0648213090       1 (B1) A      3 (A1) B    ->    4 (A1) A      2 (B1) B     
  0.0648213090       1 (B1) A      3 (A1) B    ->    2 (B1) B      4 (A1) A     
  0.0648213090       3 (A1) B      1 (B1) A    ->    4 (A1) A      2 (B1) B     
 -0.0648213090       3 (A1) B      1 (B1) A    ->    2 (B1) B      4 (A1) A     
  0.0648213090       1 (B1) B      3 (A1) A    ->    2 (B1) A      4 (A1) B     
 -0.0648213090       1 (B1) B      3 (A1) A    ->    4 (A1) B      2 (B1) A     
 -0.0462957541       3 (A1) A      1 (B1) B    ->    4 (A1) A      2 (B1) B     
  0.0462957541       3 (A1) A      1 (B1) B    ->    2 (B1) B      4 (A1) A     
 -0.0462957541       1 (B1) A      3 (A1) B    ->    2 (B1) A      4 (A1) B     
  0.0462957541       1 (B1) A      3 (A1) B    ->    4 (A1) B      2 (B1) A     
  0.0462957541       3 (A1) B      1 (B1) A    ->    2 (B1) A      4 (A1) B     
 -0.0462957541       3 (A1) B      1 (B1) A    ->    4 (A1) B      2 (B1) A     
  0.0462957541       1 (B1) B      3 (A1) A    ->    4 (A1) A      2 (B1) B     
 -0.0462957541       1 (B1) B      3 (A1) A    ->    2 (B1) B      4 (A1) A     
 -0.0432966055       1 (B2) A      1 (B2) B    ->    2 (B1) A      2 (B1) B     
  0.0432966055       1 (B2) A      1 (B2) B    ->    2 (B1) B      2 (B1) A     
  0.0432966055       1 (B2) B      1 (B2) A    ->    2 (B1) A      2 (B1) B     
 -0.0432966055       1 (B2) B      1 (B2) A    ->    2 (B1) B      2 (B1) A     
  0.0417044389       2 (A1) A      1 (B1) B    ->    4 (A1) A      2 (B1) B     
 -0.0417044389       2 (A1) A      1 (B1) B    ->    2 (B1) B      4 (A1) A     
  0.0417044389       1 (B1) A      2 (A1) B    ->    2 (B1) A      4 (A1) B     
 -0.0417044389       1 (B1) A      2 (A1) B    ->    4 (A1) B      2 (B1) A     
 -0.0417044389       2 (A1) B      1 (B1) A    ->    2 (B1) A      4 (A1) B     
  0.0417044389       2 (A1) B      1 (B1) A    ->    4 (A1) B      2 (B1) A     
 -0.0417044389       1 (B1) B      2 (A1) A    ->    4 (A1) A      2 (B1) B     
  0.0417044389       1 (B1) B      2 (A1) A    ->    2 (B1) B      4 (A1) A     
  0.0412807720       1 (B1) A      1 (B1) B    ->    2 (B1) A      2 (B1) B     
 -0.0412807720       1 (B1) A      1 (B1) B    ->    2 (B1) B      2 (B1) A     
 -0.0412807720       1 (B1) B      1 (B1) A    ->    2 (B1) A      2 (B1) B     
  0.0412807720       1 (B1) B      1 (B1) A    ->    2 (B1) B      2 (B1) A     
 -0.0397706004       2 (A1) A      3 (A1) B    ->    4 (A1) A      4 (A1) B     
 -0.0397706004       3 (A1) A      2 (A1) B    ->    4 (A1) A      4 (A1) B     
  0.0397706004       2 (A1) A      3 (A1) B    ->    4 (A1) B      4 (A1) A     
  0.0397706004       3 (A1) A      2 (A1) B    ->    4 (A1) B      4 (A1) A     
  0.0397706004       3 (A1) B      2 (A1) A    ->    4 (A1) A      4 (A1) B     
  0.0397706004       2 (A1) B      3 (A1) A    ->    4 (A1) A      4 (A1) B     
 -0.0397706004       2 (A1) B      3 (A1) A    ->    4 (A1) B      4 (A1) A     
 -0.0397706004       3 (A1) B      2 (A1) A    ->    4 (A1) B      4 (A1) A     
 -0.0356236775       2 (A1) A      2 (A1) B    ->    2 (B1) A      2 (B1) B     
  0.0356236775       2 (A1) A      2 (A1) B    ->    2 (B1) B      2 (B1) A     
  0.0356236775       2 (A1) B      2 (A1) A    ->    2 (B1) A      2 (B1) B     
 -0.0356236775       2 (A1) B      2 (A1) A    ->    2 (B1) B      2 (B1) A     
  0.0286990318       2 (A1) A      2 (A1) B    ->    4 (A1) A      4 (A1) B     
 -0.0286990318       2 (A1) A      2 (A1) B    ->    4 (A1) B      4 (A1) A     
 -0.0286990318       2 (A1) B      2 (A1) A    ->    4 (A1) A      4 (A1) B     
  0.0286990318       2 (A1) B      2 (A1) A    ->    4 (A1) B      4 (A1) A     
  0.0251328590       1 (B2) A      1 (B2) B    ->    4 (A1) A      4 (A1) B     
 -0.0251328590       1 (B2) A      1 (B2) B    ->    4 (A1) B      4 (A1) A     
 -0.0251328590       1 (B2) B      1 (B2) A    ->    4 (A1) A      4 (A1) B     
  0.0251328590       1 (B2) B      1 (B2) A    ->    4 (A1) B      4 (A1) A     
  0.0226227052       2 (A1) A      1 (B1) A    ->    4 (A1) A      2 (B1) A     
 -0.0226227052       2 (A1) A      1 (B1) A    ->    2 (B1) A      4 (A1) A     
 -0.0226227052       1 (B1) A      2 (A1) A    ->    4 (A1) A      2 (B1) A     
  0.0226227052       1 (B1) A      2 (A1) A    ->    2 (B1) A      4 (A1) A     
  0.0226227052       2 (A1) B      1 (B1) B    ->    4 (A1) B      2 (B1) B     
 -0.0226227052       2 (A1) B      1 (B1) B    ->    2 (B1) B      4 (A1) B     
 -0.0226227052       1 (B1) B      2 (A1) B    ->    4 (A1) B      2 (B1) B     
  0.0226227052       1 (B1) B      2 (A1) B    ->    2 (B1) B      4 (A1) B     
  0.0217592211       2 (A1) A      3 (A1) B    ->    2 (B1) A      2 (B1) B     
  0.0217592211       3 (A1) A      2 (A1) B    ->    2 (B1) A      2 (B1) B     
 -0.0217592211       2 (A1) A      3 (A1) B    ->    2 (B1) B      2 (B1) A     
 -0.0217592211       3 (A1) A      2 (A1) B    ->    2 (B1) B      2 (B1) A     
 -0.0217592211       3 (A1) B      2 (A1) A    ->    2 (B1) A      2 (B1) B     
 -0.0217592211       2 (A1) B      3 (A1) A    ->    2 (B1) A      2 (B1) B     
  0.0217592211       2 (A1) B      3 (A1) A    ->    2 (B1) B      2 (B1) A     
  0.0217592211       3 (A1) B      2 (A1) A    ->    2 (B1) B      2 (B1) A     
  0.0191963646       3 (A1) A      1 (B1) A    ->    4 (A1) A      2 (B1) A     
 -0.0191963646       3 (A1) A      1 (B1) A    ->    2 (B1) A      4 (A1) A     
 -0.0191963646       1 (B1) A      3 (A1) A    ->    4 (A1) A      2 (B1) A     
  0.0191963646       1 (B1) A      3 (A1) A    ->    2 (B1) A      4 (A1) A     
  0.0191963646       3 (A1) B      1 (B1) B    ->    4 (A1) B      2 (B1) B     
 -0.0191963646       3 (A1) B      1 (B1) B    ->    2 (B1) B      4 (A1) B     
 -0.0191963646       1 (B1) B      3 (A1) B    ->    4 (A1) B      2 (B1) B     
  0.0191963646       1 (B1) B      3 (A1) B    ->    2 (B1) B      4 (A1) B     
  0.0190505435       2 (A1) A      1 (B1) B    ->    2 (B1) A      4 (A1) B     
 -0.0190505435       2 (A1) A      1 (B1) B    ->    4 (A1) B      2 (B1) A     
  0.0190505435       1 (B1) A      2 (A1) B    ->    4 (A1) A      2 (B1) B     
 -0.0190505435       1 (B1) A      2 (A1) B    ->    2 (B1) B      4 (A1) A     
 -0.0190505435       2 (A1) B      1 (B1) A    ->    4 (A1) A      2 (B1) B     
  0.0190505435       2 (A1) B      1 (B1) A    ->    2 (B1) B      4 (A1) A     
 -0.0190505435       1 (B1) B      2 (A1) A    ->    2 (B1) A      4 (A1) B     
  0.0190505435       1 (B1) B      2 (A1) A    ->    4 (A1) B      2 (B1) A     

              Summary of significant orbitals:

               Number  Type             Irrep      Energy
               2       Occ  Alpha       2 (A1)     -1.1635
               4       Occ  Alpha       3 (A1)     -0.4057
               3       Occ  Alpha       1 (B1)     -0.4695
               5       Occ  Alpha       1 (B2)     -0.3922
               2       Occ  Beta        2 (A1)     -1.1635
               4       Occ  Beta        3 (A1)     -0.4057
               3       Occ  Beta        1 (B1)     -0.4695
               5       Occ  Beta        1 (B2)     -0.3922
               6       Vir  Alpha       4 (A1)      0.3397
               7       Vir  Alpha       2 (B1)      0.4255
               6       Vir  Beta        4 (A1)      0.3397
               7       Vir  Beta        2 (B1)      0.4255


 EEs and amplitudes of EOMEE has be exported to fchk file
Running a double precision version
      EOM-CCSD/MP2 left amplitudes will be solved using Davidson.
        Amplitudes will be solved using MOM  algorithm.
     Hard-coded thresholds: 
     LinDepThresh=1.00e-15  NormThresh=1.00e-06  ReorthogonThresh=1.00e-02

      Roots     MaxVec    MaxIter   Precond   Conv      Shift    
      1         120       60        1         1.00e-05  0.00e+00  
 ------------------------------------------------------------------------------
      Iter ConvRoots NVecs ResNorm Current eigenvalues (eV)
 ------------------------------------------------------------------------------
      0    0      1     1.90e-03   10.6976   
      1    0      2     3.59e-04   10.6974   
      2    0      3     4.05e-05   10.6974   
      3    0      4     1.15e-05   10.6974   
      4    1      5     4.59e-06   10.6974*  

     Davidson procedure converged

 Excited state properties for  EOMEE-CCSD transition 1/A1
 Dipole moment (a.u.): 0.083753 (X 0.000000, Y 0.000000, Z -0.083753)
 R-squared (a.u.): 23.552952 (XX 11.326559, YY 4.666033, ZZ 7.560360)
 Gauge origin (a.u.): (0.000000, 0.000000, 0.000000)
 Angular momentum (a.u.) against gauge origin: 
 (X 0.000000i, Y 0.000000i, Z 0.000000i)
 Traces of the OPDMs: Tr(AA) 5.000000, Tr(BB) 5.000000

        Solving for EOMEE-CCSD A2 singlet states.

Running a double precision version
        EOMEE-CCSD/MP2 right amplitudes will be solved using Davidson.
        Amplitudes will be solved using standard  algorithm.
     Hard-coded thresholds: 
     LinDepThresh=1.00e-15  NormThresh=1.00e-06  ReorthogonThresh=1.00e-02

      Roots     MaxVec    MaxIter   Precond   Conv      Shift    
      1         120       60        1         1.00e-05  0.00e+00  
 ------------------------------------------------------------------------------
      Iter ConvRoots NVecs ResNorm Current eigenvalues (eV)
 ------------------------------------------------------------------------------
      0    0      1     5.33e-02   9.2659   
      1    0      2     4.97e-03   6.8523   
      2    0      3     2.52e-04   6.7709   
      3    1      4     4.96e-06   6.7693*  

     Davidson procedure converged

 EOMEE transition 1/A2
 Total energy = -74.69939936 a.u.  Excitation energy = 6.76928942 eV.
 R0^2 = 0.0000  R1^2 = 0.8567  R2^2 = 0.1433  Res^2 = 4.96e-06
 Conv-d = yes

 Amplitude    Transitions between orbitals
  0.6544905567       1 (B2) A                  ->    2 (B1) A                   
  0.6544905567       1 (B2) B                  ->    2 (B1) B                   
 -0.1479956139       1 (B1) A      1 (B2) B    ->    2 (B1) A      2 (B1) B     
  0.1479956139       1 (B1) A      1 (B2) B    ->    2 (B1) B      2 (B1) A     
 -0.1479956139       1 (B2) A      1 (B1) B    ->    2 (B1) A      2 (B1) B     
  0.1479956139       1 (B2) A      1 (B1) B    ->    2 (B1) B      2 (B1) A     
  0.1479956139       1 (B1) B      1 (B2) A    ->    2 (B1) A      2 (B1) B     
 -0.1479956139       1 (B1) B      1 (B2) A    ->    2 (B1) B      2 (B1) A     
  0.1479956139       1 (B2) B      1 (B1) A    ->    2 (B1) A      2 (B1) B     
 -0.1479956139       1 (B2) B      1 (B1) A    ->    2 (B1) B      2 (B1) A     
  0.1350641499       3 (A1) A      1 (B2) B    ->    4 (A1) A      2 (B1) B     
 -0.1350641499       3 (A1) A      1 (B2) B    ->    2 (B1) B      4 (A1) A     
  0.1350641499       1 (B2) A      3 (A1) B    ->    2 (B1) A      4 (A1) B     
 -0.1350641499       1 (B2) A      3 (A1) B    ->    4 (A1) B      2 (B1) A     
 -0.1350641499       3 (A1) B      1 (B2) A    ->    2 (B1) A      4 (A1) B     
  0.1350641499       3 (A1) B      1 (B2) A    ->    4 (A1) B      2 (B1) A     
 -0.1350641499       1 (B2) B      3 (A1) A    ->    4 (A1) A      2 (B1) B     
  0.1350641499       1 (B2) B      3 (A1) A    ->    2 (B1) B      4 (A1) A     
  0.1342962538       3 (A1) A      1 (B2) B    ->    2 (B1) A      4 (A1) B     
 -0.1342962538       3 (A1) A      1 (B2) B    ->    4 (A1) B      2 (B1) A     
  0.1342962538       1 (B2) A      3 (A1) B    ->    4 (A1) A      2 (B1) B     
 -0.1342962538       1 (B2) A      3 (A1) B    ->    2 (B1) B      4 (A1) A     
 -0.1342962538       3 (A1) B      1 (B2) A    ->    4 (A1) A      2 (B1) B     
  0.1342962538       3 (A1) B      1 (B2) A    ->    2 (B1) B      4 (A1) A     
 -0.1342962538       1 (B2) B      3 (A1) A    ->    2 (B1) A      4 (A1) B     
  0.1342962538       1 (B2) B      3 (A1) A    ->    4 (A1) B      2 (B1) A     
 -0.1035619029       1 (B1) A      1 (B2) B    ->    4 (A1) A      4 (A1) B     
  0.1035619029       1 (B1) A      1 (B2) B    ->    4 (A1) B      4 (A1) A     
 -0.1035619029       1 (B2) A      1 (B1) B    ->    4 (A1) A      4 (A1) B     
  0.1035619029       1 (B2) A      1 (B1) B    ->    4 (A1) B      4 (A1) A     
  0.1035619029       1 (B1) B      1 (B2) A    ->    4 (A1) A      4 (A1) B     
 -0.1035619029       1 (B1) B      1 (B2) A    ->    4 (A1) B      4 (A1) A     
  0.1035619029       1 (B2) B      1 (B1) A    ->    4 (A1) A      4 (A1) B     
 -0.1035619029       1 (B2) B      1 (B1) A    ->    4 (A1) B      4 (A1) A     
  0.0385535501       2 (A1) A      1 (B2) B    ->    2 (B1) A      4 (A1) B     
 -0.0385535501       2 (A1) A      1 (B2) B    ->    4 (A1) B      2 (B1) A     
  0.0385535501       1 (B2) A      2 (A1) B    ->    4 (A1) A      2 (B1) B     
 -0.0385535501       1 (B2) A      2 (A1) B    ->    2 (B1) B      4 (A1) A     
 -0.0385535501       2 (A1) B      1 (B2) A    ->    4 (A1) A      2 (B1) B     
  0.0385535501       2 (A1) B      1 (B2) A    ->    2 (B1) B      4 (A1) A     
 -0.0385535501       1 (B2) B      2 (A1) A    ->    2 (B1) A      4 (A1) B     
  0.0385535501       1 (B2) B      2 (A1) A    ->    4 (A1) B      2 (B1) A     
  0.0351672491       2 (A1) A      1 (B2) B    ->    4 (A1) A      2 (B1) B     
 -0.0351672491       2 (A1) A      1 (B2) B    ->    2 (B1) B      4 (A1) A     
  0.0351672491       1 (B2) A      2 (A1) B    ->    2 (B1) A      4 (A1) B     
 -0.0351672491       1 (B2) A      2 (A1) B    ->    4 (A1) B      2 (B1) A     
 -0.0351672491       2 (A1) B      1 (B2) A    ->    2 (B1) A      4 (A1) B     
  0.0351672491       2 (A1) B      1 (B2) A    ->    4 (A1) B      2 (B1) A     
 -0.0351672491       1 (B2) B      2 (A1) A    ->    4 (A1) A      2 (B1) B     
  0.0351672491       1 (B2) B      2 (A1) A    ->    2 (B1) B      4 (A1) A     
 -0.0036635357       2 (A1) A      1 (B2) A    ->    4 (A1) A      2 (B1) A     
  0.0036635357       2 (A1) A      1 (B2) A    ->    2 (B1) A      4 (A1) A     
  0.0036635357       1 (B2) A      2 (A1) A    ->    4 (A1) A      2 (B1) A     
 -0.0036635357       1 (B2) A      2 (A1) A    ->    2 (B1) A      4 (A1) A     
 -0.0036635357       2 (A1) B      1 (B2) B    ->    4 (A1) B      2 (B1) B     
  0.0036635357       2 (A1) B      1 (B2) B    ->    2 (B1) B      4 (A1) B     
  0.0036635357       1 (B2) B      2 (A1) B    ->    4 (A1) B      2 (B1) B     
 -0.0036635357       1 (B2) B      2 (A1) B    ->    2 (B1) B      4 (A1) B     
 -0.0000173601       3 (A1) A      1 (B2) A    ->    4 (A1) A      2 (B1) A     
  0.0000173601       3 (A1) A      1 (B2) A    ->    2 (B1) A      4 (A1) A     
  0.0000173601       1 (B2) A      3 (A1) A    ->    4 (A1) A      2 (B1) A     
 -0.0000173601       1 (B2) A      3 (A1) A    ->    2 (B1) A      4 (A1) A     
 -0.0000173601       3 (A1) B      1 (B2) B    ->    4 (A1) B      2 (B1) B     
  0.0000173601       3 (A1) B      1 (B2) B    ->    2 (B1) B      4 (A1) B     
  0.0000173601       1 (B2) B      3 (A1) B    ->    4 (A1) B      2 (B1) B     
 -0.0000173601       1 (B2) B      3 (A1) B    ->    2 (B1) B      4 (A1) B     

              Summary of significant orbitals:

               Number  Type             Irrep      Energy
               2       Occ  Alpha       2 (A1)     -1.1635
               4       Occ  Alpha       3 (A1)     -0.4057
               3       Occ  Alpha       1 (B1)     -0.4695
               5       Occ  Alpha       1 (B2)     -0.3922
               2       Occ  Beta        2 (A1)     -1.1635
               4       Occ  Beta        3 (A1)     -0.4057
               3       Occ  Beta        1 (B1)     -0.4695
               5       Occ  Beta        1 (B2)     -0.3922
               6       Vir  Alpha       4 (A1)      0.3397
               7       Vir  Alpha       2 (B1)      0.4255
               6       Vir  Beta        4 (A1)      0.3397
               7       Vir  Beta        2 (B1)      0.4255


 EEs and amplitudes of EOMEE has be exported to fchk file
Running a double precision version
      EOM-CCSD/MP2 left amplitudes will be solved using Davidson.
        Amplitudes will be solved using MOM  algorithm.
     Hard-coded thresholds: 
     LinDepThresh=1.00e-15  NormThresh=1.00e-06  ReorthogonThresh=1.00e-02

      Roots     MaxVec    MaxIter   Precond   Conv      Shift    
      1         120       60        1         1.00e-05  0.00e+00  
 ------------------------------------------------------------------------------
      Iter ConvRoots NVecs ResNorm Current eigenvalues (eV)
 ------------------------------------------------------------------------------
      0    0      1     1.01e-03   6.7693   
      1    0      2     1.68e-04   6.7696   
      2    1      3     6.16e-06   6.7697*  

     Davidson procedure converged

 Excited state properties for  EOMEE-CCSD transition 1/A2
 Dipole moment (a.u.): 0.166459 (X 0.000000, Y 0.000000, Z -0.166459)
 R-squared (a.u.): 24.337801 (XX 12.106648, YY 4.103441, ZZ 8.127713)
 Gauge origin (a.u.): (0.000000, 0.000000, 0.000000)
 Angular momentum (a.u.) against gauge origin: 
 (X 0.000000i, Y 0.000000i, Z 0.000000i)
 Traces of the OPDMs: Tr(AA) 5.000000, Tr(BB) 5.000000

        Solving for EOMEE-CCSD B1 singlet states.

Running a double precision version
        EOMEE-CCSD/MP2 right amplitudes will be solved using Davidson.
        Amplitudes will be solved using standard  algorithm.
     Hard-coded thresholds: 
     LinDepThresh=1.00e-15  NormThresh=1.00e-06  ReorthogonThresh=1.00e-02

      Roots     MaxVec    MaxIter   Precond   Conv      Shift    
      1         120       60        1         1.00e-05  0.00e+00  
 ------------------------------------------------------------------------------
      Iter ConvRoots NVecs ResNorm Current eigenvalues (eV)
 ------------------------------------------------------------------------------
      0    0      1     3.64e-02   14.9923   
      1    0      2     2.13e-02   13.9455   
      2    0      3     1.01e-02   11.4580   
      3    0      4     1.74e-03   11.1258   
      4    0      5     1.47e-04   11.0782   
      5    1      6     5.59e-06   11.0762*  

     Davidson procedure converged

 EOMEE transition 1/B1
 Total energy = -74.54112182 a.u.  Excitation energy = 11.07624029 eV.
 R0^2 = 0.0000  R1^2 = 0.8460  R2^2 = 0.1540  Res^2 = 5.59e-06
 Conv-d = yes

 Amplitude    Transitions between orbitals
 -0.5057235942       3 (A1) A                  ->    2 (B1) A                   
 -0.5057235942       3 (A1) B                  ->    2 (B1) B                   
 -0.4088162973       1 (B1) A                  ->    4 (A1) A                   
 -0.4088162973       1 (B1) B                  ->    4 (A1) B                   
  0.0110866477       2 (A1) A                  ->    2 (B1) A                   
  0.0110866477       2 (A1) B                  ->    2 (B1) B                   
 -0.1839151894       3 (A1) A      3 (A1) B    ->    4 (A1) A      2 (B1) B     
 -0.1839151894       3 (A1) A      3 (A1) B    ->    2 (B1) A      4 (A1) B     
  0.1839151894       3 (A1) A      3 (A1) B    ->    4 (A1) B      2 (B1) A     
  0.1839151894       3 (A1) A      3 (A1) B    ->    2 (B1) B      4 (A1) A     
  0.1839151894       3 (A1) B      3 (A1) A    ->    4 (A1) A      2 (B1) B     
  0.1839151894       3 (A1) B      3 (A1) A    ->    2 (B1) A      4 (A1) B     
 -0.1839151894       3 (A1) B      3 (A1) A    ->    4 (A1) B      2 (B1) A     
 -0.1839151894       3 (A1) B      3 (A1) A    ->    2 (B1) B      4 (A1) A     
  0.1453740018       3 (A1) A      1 (B1) B    ->    4 (A1) A      4 (A1) B     
 -0.1453740018       3 (A1) A      1 (B1) B    ->    4 (A1) B      4 (A1) A     
  0.1453740018       1 (B1) A      3 (A1) B    ->    4 (A1) A      4 (A1) B     
 -0.1453740018       1 (B1) A      3 (A1) B    ->    4 (A1) B      4 (A1) A     
 -0.1453740018       3 (A1) B      1 (B1) A    ->    4 (A1) A      4 (A1) B     
  0.1453740018       3 (A1) B      1 (B1) A    ->    4 (A1) B      4 (A1) A     
 -0.1453740018       1 (B1) B      3 (A1) A    ->    4 (A1) A      4 (A1) B     
  0.1453740018       1 (B1) B      3 (A1) A    ->    4 (A1) B      4 (A1) A     
  0.1161955943       1 (B1) A      1 (B1) B    ->    4 (A1) A      2 (B1) B     
  0.1161955943       1 (B1) A      1 (B1) B    ->    2 (B1) A      4 (A1) B     
 -0.1161955943       1 (B1) A      1 (B1) B    ->    4 (A1) B      2 (B1) A     
 -0.1161955943       1 (B1) A      1 (B1) B    ->    2 (B1) B      4 (A1) A     
 -0.1161955943       1 (B1) B      1 (B1) A    ->    4 (A1) A      2 (B1) B     
 -0.1161955943       1 (B1) B      1 (B1) A    ->    2 (B1) A      4 (A1) B     
  0.1161955943       1 (B1) B      1 (B1) A    ->    4 (A1) B      2 (B1) A     
  0.1161955943       1 (B1) B      1 (B1) A    ->    2 (B1) B      4 (A1) A     
 -0.0767836306       3 (A1) A      1 (B1) B    ->    2 (B1) A      2 (B1) B     
  0.0767836306       3 (A1) A      1 (B1) B    ->    2 (B1) B      2 (B1) A     
 -0.0767836306       1 (B1) A      3 (A1) B    ->    2 (B1) A      2 (B1) B     
  0.0767836306       1 (B1) A      3 (A1) B    ->    2 (B1) B      2 (B1) A     
  0.0767836306       3 (A1) B      1 (B1) A    ->    2 (B1) A      2 (B1) B     
 -0.0767836306       3 (A1) B      1 (B1) A    ->    2 (B1) B      2 (B1) A     
  0.0767836306       1 (B1) B      3 (A1) A    ->    2 (B1) A      2 (B1) B     
 -0.0767836306       1 (B1) B      3 (A1) A    ->    2 (B1) B      2 (B1) A     
 -0.0411510415       2 (A1) A      1 (B1) B    ->    2 (B1) A      2 (B1) B     
  0.0411510415       2 (A1) A      1 (B1) B    ->    2 (B1) B      2 (B1) A     
 -0.0411510415       1 (B1) A      2 (A1) B    ->    2 (B1) A      2 (B1) B     
  0.0411510415       1 (B1) A      2 (A1) B    ->    2 (B1) B      2 (B1) A     
  0.0411510415       2 (A1) B      1 (B1) A    ->    2 (B1) A      2 (B1) B     
 -0.0411510415       2 (A1) B      1 (B1) A    ->    2 (B1) B      2 (B1) A     
  0.0411510415       1 (B1) B      2 (A1) A    ->    2 (B1) A      2 (B1) B     
 -0.0411510415       1 (B1) B      2 (A1) A    ->    2 (B1) B      2 (B1) A     
 -0.0185229896       2 (A1) A      3 (A1) B    ->    4 (A1) A      2 (B1) B     
 -0.0185229896       3 (A1) A      2 (A1) B    ->    2 (B1) A      4 (A1) B     
  0.0185229896       3 (A1) A      2 (A1) B    ->    4 (A1) B      2 (B1) A     
  0.0185229896       2 (A1) A      3 (A1) B    ->    2 (B1) B      4 (A1) A     
  0.0185229896       3 (A1) B      2 (A1) A    ->    4 (A1) A      2 (B1) B     
  0.0185229896       2 (A1) B      3 (A1) A    ->    2 (B1) A      4 (A1) B     
 -0.0185229896       2 (A1) B      3 (A1) A    ->    4 (A1) B      2 (B1) A     
 -0.0185229896       3 (A1) B      2 (A1) A    ->    2 (B1) B      4 (A1) A     
  0.0155485831       2 (A1) A      1 (B1) B    ->    4 (A1) A      4 (A1) B     
 -0.0155485831       2 (A1) A      1 (B1) B    ->    4 (A1) B      4 (A1) A     
  0.0155485831       1 (B1) A      2 (A1) B    ->    4 (A1) A      4 (A1) B     
 -0.0155485831       1 (B1) A      2 (A1) B    ->    4 (A1) B      4 (A1) A     
 -0.0155485831       2 (A1) B      1 (B1) A    ->    4 (A1) A      4 (A1) B     
  0.0155485831       2 (A1) B      1 (B1) A    ->    4 (A1) B      4 (A1) A     
 -0.0155485831       1 (B1) B      2 (A1) A    ->    4 (A1) A      4 (A1) B     
  0.0155485831       1 (B1) B      2 (A1) A    ->    4 (A1) B      4 (A1) A     
 -0.0144949618       2 (A1) A      3 (A1) A    ->    4 (A1) A      2 (B1) A     
  0.0144949618       3 (A1) A      2 (A1) A    ->    4 (A1) A      2 (B1) A     
  0.0144949618       2 (A1) A      3 (A1) A    ->    2 (B1) A      4 (A1) A     
 -0.0144949618       3 (A1) A      2 (A1) A    ->    2 (B1) A      4 (A1) A     
 -0.0144949618       2 (A1) B      3 (A1) B    ->    4 (A1) B      2 (B1) B     
  0.0144949618       3 (A1) B      2 (A1) B    ->    4 (A1) B      2 (B1) B     
  0.0144949618       2 (A1) B      3 (A1) B    ->    2 (B1) B      4 (A1) B     
 -0.0144949618       3 (A1) B      2 (A1) B    ->    2 (B1) B      4 (A1) B     
  0.0103390576       1 (B2) A      1 (B2) B    ->    4 (A1) A      2 (B1) B     
  0.0103390576       1 (B2) A      1 (B2) B    ->    2 (B1) A      4 (A1) B     
 -0.0103390576       1 (B2) A      1 (B2) B    ->    4 (A1) B      2 (B1) A     
 -0.0103390576       1 (B2) A      1 (B2) B    ->    2 (B1) B      4 (A1) A     
 -0.0103390576       1 (B2) B      1 (B2) A    ->    4 (A1) A      2 (B1) B     
 -0.0103390576       1 (B2) B      1 (B2) A    ->    2 (B1) A      4 (A1) B     
  0.0103390576       1 (B2) B      1 (B2) A    ->    4 (A1) B      2 (B1) A     
  0.0103390576       1 (B2) B      1 (B2) A    ->    2 (B1) B      4 (A1) A     
  0.0049101201       2 (A1) A      2 (A1) B    ->    4 (A1) A      2 (B1) B     
  0.0049101201       2 (A1) A      2 (A1) B    ->    2 (B1) A      4 (A1) B     
 -0.0049101201       2 (A1) A      2 (A1) B    ->    4 (A1) B      2 (B1) A     
 -0.0049101201       2 (A1) A      2 (A1) B    ->    2 (B1) B      4 (A1) A     
 -0.0049101201       2 (A1) B      2 (A1) A    ->    4 (A1) A      2 (B1) B     
 -0.0049101201       2 (A1) B      2 (A1) A    ->    2 (B1) A      4 (A1) B     
  0.0049101201       2 (A1) B      2 (A1) A    ->    4 (A1) B      2 (B1) A     
  0.0049101201       2 (A1) B      2 (A1) A    ->    2 (B1) B      4 (A1) A     
 -0.0038795798       3 (A1) A      2 (A1) B    ->    4 (A1) A      2 (B1) B     
 -0.0038795798       2 (A1) A      3 (A1) B    ->    2 (B1) A      4 (A1) B     
  0.0038795798       2 (A1) A      3 (A1) B    ->    4 (A1) B      2 (B1) A     
  0.0038795798       3 (A1) A      2 (A1) B    ->    2 (B1) B      4 (A1) A     
  0.0038795798       2 (A1) B      3 (A1) A    ->    4 (A1) A      2 (B1) B     
  0.0038795798       3 (A1) B      2 (A1) A    ->    2 (B1) A      4 (A1) B     
 -0.0038795798       3 (A1) B      2 (A1) A    ->    4 (A1) B      2 (B1) A     
 -0.0038795798       2 (A1) B      3 (A1) A    ->    2 (B1) B      4 (A1) A     

              Summary of significant orbitals:

               Number  Type             Irrep      Energy
               2       Occ  Alpha       2 (A1)     -1.1635
               4       Occ  Alpha       3 (A1)     -0.4057
               3       Occ  Alpha       1 (B1)     -0.4695
               5       Occ  Alpha       1 (B2)     -0.3922
               2       Occ  Beta        2 (A1)     -1.1635
               4       Occ  Beta        3 (A1)     -0.4057
               3       Occ  Beta        1 (B1)     -0.4695
               5       Occ  Beta        1 (B2)     -0.3922
               6       Vir  Alpha       4 (A1)      0.3397
               7       Vir  Alpha       2 (B1)      0.4255
               6       Vir  Beta        4 (A1)      0.3397
               7       Vir  Beta        2 (B1)      0.4255


 EEs and amplitudes of EOMEE has be exported to fchk file
Running a double precision version
      EOM-CCSD/MP2 left amplitudes will be solved using Davidson.
        Amplitudes will be solved using MOM  algorithm.
     Hard-coded thresholds: 
     LinDepThresh=1.00e-15  NormThresh=1.00e-06  ReorthogonThresh=1.00e-02

      Roots     MaxVec    MaxIter   Precond   Conv      Shift    
      1         120       60        1         1.00e-05  0.00e+00  
 ------------------------------------------------------------------------------
      Iter ConvRoots NVecs ResNorm Current eigenvalues (eV)
 ------------------------------------------------------------------------------
      0    0      1     9.81e-04   11.0762   
      1    0      2     1.20e-04   11.0762   
      2    1      3     3.49e-06   11.0761*  

     Davidson procedure converged

 Excited state properties for  EOMEE-CCSD transition 1/B1
 Dipole moment (a.u.): 0.125663 (X 0.000000, Y 0.000000, Z -0.125663)
 R-squared (a.u.): 23.889974 (XX 11.551405, YY 4.672501, ZZ 7.666068)
 Gauge origin (a.u.): (0.000000, 0.000000, 0.000000)
 Angular momentum (a.u.) against gauge origin: 
 (X 0.000000i, Y 0.000000i, Z 0.000000i)
 Traces of the OPDMs: Tr(AA) 5.000000, Tr(BB) 5.000000

        Solving for EOMEE-CCSD B2 singlet states.

Running a double precision version
        EOMEE-CCSD/MP2 right amplitudes will be solved using Davidson.
        Amplitudes will be solved using standard  algorithm.
     Hard-coded thresholds: 
     LinDepThresh=1.00e-15  NormThresh=1.00e-06  ReorthogonThresh=1.00e-02

      Roots     MaxVec    MaxIter   Precond   Conv      Shift    
      1         120       60        1         1.00e-05  0.00e+00  
 ------------------------------------------------------------------------------
      Iter ConvRoots NVecs ResNorm Current eigenvalues (eV)
 ------------------------------------------------------------------------------
      0    0      1     6.26e-02   7.9325   
      1    0      2     5.04e-03   5.3134   
      2    0      3     2.93e-04   5.2184   
      3    0      4     3.41e-05   5.2180   
      4    1      5     1.96e-06   5.2156*  

     Davidson procedure converged

 EOMEE transition 1/B2
 Total energy = -74.75649702 a.u.  Excitation energy = 5.21558289 eV.
 R0^2 = 0.0000  R1^2 = 0.8568  R2^2 = 0.1432  Res^2 = 1.96e-06
 Conv-d = yes

 Amplitude    Transitions between orbitals
  0.6545131751       1 (B2) A                  ->    4 (A1) A                   
  0.6545131751       1 (B2) B                  ->    4 (A1) B                   
  0.1639575556       3 (A1) A      1 (B2) B    ->    4 (A1) A      4 (A1) B     
 -0.1639575556       3 (A1) A      1 (B2) B    ->    4 (A1) B      4 (A1) A     
  0.1639575556       1 (B2) A      3 (A1) B    ->    4 (A1) A      4 (A1) B     
 -0.1639575556       1 (B2) A      3 (A1) B    ->    4 (A1) B      4 (A1) A     
 -0.1639575556       3 (A1) B      1 (B2) A    ->    4 (A1) A      4 (A1) B     
  0.1639575556       3 (A1) B      1 (B2) A    ->    4 (A1) B      4 (A1) A     
 -0.1639575556       1 (B2) B      3 (A1) A    ->    4 (A1) A      4 (A1) B     
  0.1639575556       1 (B2) B      3 (A1) A    ->    4 (A1) B      4 (A1) A     
 -0.1364024262       1 (B1) A      1 (B2) B    ->    2 (B1) A      4 (A1) B     
  0.1364024262       1 (B1) A      1 (B2) B    ->    4 (A1) B      2 (B1) A     
 -0.1364024262       1 (B2) A      1 (B1) B    ->    4 (A1) A      2 (B1) B     
  0.1364024262       1 (B2) A      1 (B1) B    ->    2 (B1) B      4 (A1) A     
  0.1364024262       1 (B1) B      1 (B2) A    ->    4 (A1) A      2 (B1) B     
 -0.1364024262       1 (B1) B      1 (B2) A    ->    2 (B1) B      4 (A1) A     
  0.1364024262       1 (B2) B      1 (B1) A    ->    2 (B1) A      4 (A1) B     
 -0.1364024262       1 (B2) B      1 (B1) A    ->    4 (A1) B      2 (B1) A     
 -0.1320083474       1 (B1) A      1 (B2) B    ->    4 (A1) A      2 (B1) B     
  0.1320083474       1 (B1) A      1 (B2) B    ->    2 (B1) B      4 (A1) A     
 -0.1320083474       1 (B2) A      1 (B1) B    ->    2 (B1) A      4 (A1) B     
  0.1320083474       1 (B2) A      1 (B1) B    ->    4 (A1) B      2 (B1) A     
  0.1320083474       1 (B1) B      1 (B2) A    ->    2 (B1) A      4 (A1) B     
 -0.1320083474       1 (B1) B      1 (B2) A    ->    4 (A1) B      2 (B1) A     
  0.1320083474       1 (B2) B      1 (B1) A    ->    4 (A1) A      2 (B1) B     
 -0.1320083474       1 (B2) B      1 (B1) A    ->    2 (B1) B      4 (A1) A     
  0.0779345594       3 (A1) A      1 (B2) B    ->    2 (B1) A      2 (B1) B     
 -0.0779345594       3 (A1) A      1 (B2) B    ->    2 (B1) B      2 (B1) A     
  0.0779345594       1 (B2) A      3 (A1) B    ->    2 (B1) A      2 (B1) B     
 -0.0779345594       1 (B2) A      3 (A1) B    ->    2 (B1) B      2 (B1) A     
 -0.0779345594       3 (A1) B      1 (B2) A    ->    2 (B1) A      2 (B1) B     
  0.0779345594       3 (A1) B      1 (B2) A    ->    2 (B1) B      2 (B1) A     
 -0.0779345594       1 (B2) B      3 (A1) A    ->    2 (B1) A      2 (B1) B     
  0.0779345594       1 (B2) B      3 (A1) A    ->    2 (B1) B      2 (B1) A     
  0.0504595996       2 (A1) A      1 (B2) B    ->    4 (A1) A      4 (A1) B     
 -0.0504595996       2 (A1) A      1 (B2) B    ->    4 (A1) B      4 (A1) A     
  0.0504595996       1 (B2) A      2 (A1) B    ->    4 (A1) A      4 (A1) B     
 -0.0504595996       1 (B2) A      2 (A1) B    ->    4 (A1) B      4 (A1) A     
 -0.0504595996       2 (A1) B      1 (B2) A    ->    4 (A1) A      4 (A1) B     
  0.0504595996       2 (A1) B      1 (B2) A    ->    4 (A1) B      4 (A1) A     
 -0.0504595996       1 (B2) B      2 (A1) A    ->    4 (A1) A      4 (A1) B     
  0.0504595996       1 (B2) B      2 (A1) A    ->    4 (A1) B      4 (A1) A     
  0.0078901094       2 (A1) A      1 (B2) B    ->    2 (B1) A      2 (B1) B     
 -0.0078901094       2 (A1) A      1 (B2) B    ->    2 (B1) B      2 (B1) A     
  0.0078901094       1 (B2) A      2 (A1) B    ->    2 (B1) A      2 (B1) B     
 -0.0078901094       1 (B2) A      2 (A1) B    ->    2 (B1) B      2 (B1) A     
 -0.0078901094       2 (A1) B      1 (B2) A    ->    2 (B1) A      2 (B1) B     
  0.0078901094       2 (A1) B      1 (B2) A    ->    2 (B1) B      2 (B1) A     
 -0.0078901094       1 (B2) B      2 (A1) A    ->    2 (B1) A      2 (B1) B     
  0.0078901094       1 (B2) B      2 (A1) A    ->    2 (B1) B      2 (B1) A     
  0.0040468871       1 (B1) A      1 (B2) A    ->    4 (A1) A      2 (B1) A     
 -0.0040468871       1 (B1) A      1 (B2) A    ->    2 (B1) A      4 (A1) A     
 -0.0040468871       1 (B2) A      1 (B1) A    ->    4 (A1) A      2 (B1) A     
  0.0040468871       1 (B2) A      1 (B1) A    ->    2 (B1) A      4 (A1) A     
  0.0040468871       1 (B1) B      1 (B2) B    ->    4 (A1) B      2 (B1) B     
 -0.0040468871       1 (B1) B      1 (B2) B    ->    2 (B1) B      4 (A1) B     
 -0.0040468871       1 (B2) B      1 (B1) B    ->    4 (A1) B      2 (B1) B     
  0.0040468871       1 (B2) B      1 (B1) B    ->    2 (B1) B      4 (A1) B     

              Summary of significant orbitals:

               Number  Type             Irrep      Energy
               2       Occ  Alpha       2 (A1)     -1.1635
               4       Occ  Alpha       3 (A1)     -0.4057
               3       Occ  Alpha       1 (B1)     -0.4695
               5       Occ  Alpha       1 (B2)     -0.3922
               2       Occ  Beta        2 (A1)     -1.1635
               4       Occ  Beta        3 (A1)     -0.4057
               3       Occ  Beta        1 (B1)     -0.4695
               5       Occ  Beta        1 (B2)     -0.3922
               6       Vir  Alpha       4 (A1)      0.3397
               7       Vir  Alpha       2 (B1)      0.4255
               6       Vir  Beta        4 (A1)      0.3397
               7       Vir  Beta        2 (B1)      0.4255


 EEs and amplitudes of EOMEE has be exported to fchk file
Running a double precision version
      EOM-CCSD/MP2 left amplitudes will be solved using Davidson.
        Amplitudes will be solved using MOM  algorithm.
     Hard-coded thresholds: 
     LinDepThresh=1.00e-15  NormThresh=1.00e-06  ReorthogonThresh=1.00e-02

      Roots     MaxVec    MaxIter   Precond   Conv      Shift    
      1         120       60        1         1.00e-05  0.00e+00  
 ------------------------------------------------------------------------------
      Iter ConvRoots NVecs ResNorm Current eigenvalues (eV)
 ------------------------------------------------------------------------------
      0    0      1     1.54e-03   5.2156   
      1    0      2     1.74e-04   5.2148   
      2    1      3     6.58e-06   5.2150*  

     Davidson procedure converged

 Excited state properties for  EOMEE-CCSD transition 1/B2
 Dipole moment (a.u.): 0.011752 (X 0.000000, Y 0.000000, Z -0.011752)
 R-squared (a.u.): 24.408087 (XX 11.962646, YY 4.160803, ZZ 8.284638)
 Gauge origin (a.u.): (0.000000, 0.000000, 0.000000)
 Angular momentum (a.u.) against gauge origin: 
 (X 0.000000i, Y 0.000000i, Z 0.000000i)
 Traces of the OPDMs: Tr(AA) 5.000000, Tr(BB) 5.000000

        Solving for EOMEE-CCSD A1 triplet states.

Running a double precision version
        EOMEE-CCSD/MP2 right amplitudes will be solved using Davidson.
        Amplitudes will be solved using standard  algorithm.
     Hard-coded thresholds: 
     LinDepThresh=1.00e-15  NormThresh=1.00e-06  ReorthogonThresh=1.00e-02

      Roots     MaxVec    MaxIter   Precond   Conv      Shift    
      1         120       60        1         1.00e-05  0.00e+00  
 ------------------------------------------------------------------------------
      Iter ConvRoots NVecs ResNorm Current eigenvalues (eV)
 ------------------------------------------------------------------------------
      0    0      1     3.30e-02   7.9665   
      1    0      2     1.09e-02   6.7908   
      2    0      3     2.33e-03   6.2118   
      3    0      4     4.33e-04   6.1047   
      4    0      5     2.97e-05   6.0889   
      5    1      6     7.53e-07   6.0880*  

     Davidson procedure converged

 EOMEE transition 1/A1
 Total energy = -74.72443696 a.u.  Excitation energy = 6.08798154 eV.
 R0^2 = 0.0000  R1^2 = 0.9882  R2^2 = 0.0118  Res^2 = 7.53e-07
 Conv-d = yes

 Amplitude    Transitions between orbitals
  0.6327171486       3 (A1) A                  ->    4 (A1) A                   
 -0.6327171486       3 (A1) B                  ->    4 (A1) B                   
 -0.3025640703       1 (B1) A                  ->    2 (B1) A                   
  0.3025640703       1 (B1) B                  ->    2 (B1) B                   
  0.0470521010       2 (A1) A                  ->    4 (A1) A                   
 -0.0470521010       2 (A1) B                  ->    4 (A1) B                   
 -0.0500028354       3 (A1) A      1 (B1) B    ->    2 (B1) A      4 (A1) B     
  0.0500028354       3 (A1) A      1 (B1) B    ->    4 (A1) B      2 (B1) A     
  0.0500028354       1 (B1) A      3 (A1) B    ->    4 (A1) A      2 (B1) B     
 -0.0500028354       1 (B1) A      3 (A1) B    ->    2 (B1) B      4 (A1) A     
 -0.0500028354       3 (A1) B      1 (B1) A    ->    4 (A1) A      2 (B1) B     
  0.0500028354       3 (A1) B      1 (B1) A    ->    2 (B1) B      4 (A1) A     
  0.0500028354       1 (B1) B      3 (A1) A    ->    2 (B1) A      4 (A1) B     
 -0.0500028354       1 (B1) B      3 (A1) A    ->    4 (A1) B      2 (B1) A     
 -0.0487995595       3 (A1) A      1 (B1) B    ->    4 (A1) A      2 (B1) B     
  0.0487995595       3 (A1) A      1 (B1) B    ->    2 (B1) B      4 (A1) A     
  0.0487995595       1 (B1) A      3 (A1) B    ->    2 (B1) A      4 (A1) B     
 -0.0487995595       1 (B1) A      3 (A1) B    ->    4 (A1) B      2 (B1) A     
 -0.0487995595       3 (A1) B      1 (B1) A    ->    2 (B1) A      4 (A1) B     
  0.0487995595       3 (A1) B      1 (B1) A    ->    4 (A1) B      2 (B1) A     
  0.0487995595       1 (B1) B      3 (A1) A    ->    4 (A1) A      2 (B1) B     
 -0.0487995595       1 (B1) B      3 (A1) A    ->    2 (B1) B      4 (A1) A     
  0.0266657745       2 (A1) A      1 (B1) B    ->    4 (A1) A      2 (B1) B     
 -0.0266657745       2 (A1) A      1 (B1) B    ->    2 (B1) B      4 (A1) A     
 -0.0266657745       1 (B1) A      2 (A1) B    ->    2 (B1) A      4 (A1) B     
  0.0266657745       1 (B1) A      2 (A1) B    ->    4 (A1) B      2 (B1) A     
  0.0266657745       2 (A1) B      1 (B1) A    ->    2 (B1) A      4 (A1) B     
 -0.0266657745       2 (A1) B      1 (B1) A    ->    4 (A1) B      2 (B1) A     
 -0.0266657745       1 (B1) B      2 (A1) A    ->    4 (A1) A      2 (B1) B     
  0.0266657745       1 (B1) B      2 (A1) A    ->    2 (B1) B      4 (A1) A     
 -0.0115024123       2 (A1) A      3 (A1) B    ->    2 (B1) A      2 (B1) B     
  0.0115024123       3 (A1) A      2 (A1) B    ->    2 (B1) A      2 (B1) B     
  0.0115024123       2 (A1) A      3 (A1) B    ->    2 (B1) B      2 (B1) A     
 -0.0115024123       3 (A1) A      2 (A1) B    ->    2 (B1) B      2 (B1) A     
  0.0115024123       3 (A1) B      2 (A1) A    ->    2 (B1) A      2 (B1) B     
 -0.0115024123       2 (A1) B      3 (A1) A    ->    2 (B1) A      2 (B1) B     
  0.0115024123       2 (A1) B      3 (A1) A    ->    2 (B1) B      2 (B1) A     
 -0.0115024123       3 (A1) B      2 (A1) A    ->    2 (B1) B      2 (B1) A     
 -0.0093574223       2 (A1) A      1 (B1) B    ->    2 (B1) A      4 (A1) B     
  0.0093574223       2 (A1) A      1 (B1) B    ->    4 (A1) B      2 (B1) A     
  0.0093574223       1 (B1) A      2 (A1) B    ->    4 (A1) A      2 (B1) B     
 -0.0093574223       1 (B1) A      2 (A1) B    ->    2 (B1) B      4 (A1) A     
 -0.0093574223       2 (A1) B      1 (B1) A    ->    4 (A1) A      2 (B1) B     
  0.0093574223       2 (A1) B      1 (B1) A    ->    2 (B1) B      4 (A1) A     
  0.0093574223       1 (B1) B      2 (A1) A    ->    2 (B1) A      4 (A1) B     
 -0.0093574223       1 (B1) B      2 (A1) A    ->    4 (A1) B      2 (B1) A     
 -0.0073106816       3 (A1) A      1 (B1) A    ->    4 (A1) A      2 (B1) A     
  0.0073106816       3 (A1) A      1 (B1) A    ->    2 (B1) A      4 (A1) A     
  0.0073106816       1 (B1) A      3 (A1) A    ->    4 (A1) A      2 (B1) A     
 -0.0073106816       1 (B1) A      3 (A1) A    ->    2 (B1) A      4 (A1) A     
  0.0073106816       3 (A1) B      1 (B1) B    ->    4 (A1) B      2 (B1) B     
 -0.0073106816       3 (A1) B      1 (B1) B    ->    2 (B1) B      4 (A1) B     
 -0.0073106816       1 (B1) B      3 (A1) B    ->    4 (A1) B      2 (B1) B     
  0.0073106816       1 (B1) B      3 (A1) B    ->    2 (B1) B      4 (A1) B     
  0.0064871918       2 (A1) A      1 (B1) A    ->    4 (A1) A      2 (B1) A     
 -0.0064871918       2 (A1) A      1 (B1) A    ->    2 (B1) A      4 (A1) A     
 -0.0064871918       1 (B1) A      2 (A1) A    ->    4 (A1) A      2 (B1) A     
  0.0064871918       1 (B1) A      2 (A1) A    ->    2 (B1) A      4 (A1) A     
 -0.0064871918       2 (A1) B      1 (B1) B    ->    4 (A1) B      2 (B1) B     
  0.0064871918       2 (A1) B      1 (B1) B    ->    2 (B1) B      4 (A1) B     
  0.0064871918       1 (B1) B      2 (A1) B    ->    4 (A1) B      2 (B1) B     
 -0.0064871918       1 (B1) B      2 (A1) B    ->    2 (B1) B      4 (A1) B     
 -0.0013972899       2 (A1) A      3 (A1) B    ->    4 (A1) A      4 (A1) B     
  0.0013972899       3 (A1) A      2 (A1) B    ->    4 (A1) A      4 (A1) B     
  0.0013972899       2 (A1) A      3 (A1) B    ->    4 (A1) B      4 (A1) A     
 -0.0013972899       3 (A1) A      2 (A1) B    ->    4 (A1) B      4 (A1) A     
  0.0013972899       3 (A1) B      2 (A1) A    ->    4 (A1) A      4 (A1) B     
 -0.0013972899       2 (A1) B      3 (A1) A    ->    4 (A1) A      4 (A1) B     
  0.0013972899       2 (A1) B      3 (A1) A    ->    4 (A1) B      4 (A1) A     
 -0.0013972899       3 (A1) B      2 (A1) A    ->    4 (A1) B      4 (A1) A     

              Summary of significant orbitals:

               Number  Type             Irrep      Energy
               2       Occ  Alpha       2 (A1)     -1.1635
               4       Occ  Alpha       3 (A1)     -0.4057
               3       Occ  Alpha       1 (B1)     -0.4695
               2       Occ  Beta        2 (A1)     -1.1635
               4       Occ  Beta        3 (A1)     -0.4057
               3       Occ  Beta        1 (B1)     -0.4695
               6       Vir  Alpha       4 (A1)      0.3397
               7       Vir  Alpha       2 (B1)      0.4255
               6       Vir  Beta        4 (A1)      0.3397
               7       Vir  Beta        2 (B1)      0.4255


 EEs and amplitudes of EOMEE has be exported to fchk file
Running a double precision version
      EOM-CCSD/MP2 left amplitudes will be solved using Davidson.
        Amplitudes will be solved using MOM  algorithm.
     Hard-coded thresholds: 
     LinDepThresh=1.00e-15  NormThresh=1.00e-06  ReorthogonThresh=1.00e-02

      Roots     MaxVec    MaxIter   Precond   Conv      Shift    
      1         120       60        1         1.00e-05  0.00e+00  
 ------------------------------------------------------------------------------
      Iter ConvRoots NVecs ResNorm Current eigenvalues (eV)
 ------------------------------------------------------------------------------
      0    0      1     4.79e-04   6.0880   
      1    0      2     3.79e-05   6.0877   
      2    1      3     2.25e-06   6.0877*  

     Davidson procedure converged

 Excited state properties for  EOMEE-CCSD transition 1/A1
 Dipole moment (a.u.): 0.076101 (X 0.000000, Y 0.000000, Z -0.076101)
 R-squared (a.u.): 24.094936 (XX 11.710289, YY 4.716911, ZZ 7.667736)
 Gauge origin (a.u.): (0.000000, 0.000000, 0.000000)
 Angular momentum (a.u.) against gauge origin: 
 (X 0.000000i, Y 0.000000i, Z 0.000000i)
 Traces of the OPDMs: Tr(AA) 5.000000, Tr(BB) 5.000000

        Solving for EOMEE-CCSD A2 triplet states.

Running a double precision version
        EOMEE-CCSD/MP2 right amplitudes will be solved using Davidson.
        Amplitudes will be solved using standard  algorithm.
     Hard-coded thresholds: 
     LinDepThresh=1.00e-15  NormThresh=1.00e-06  ReorthogonThresh=1.00e-02

      Roots     MaxVec    MaxIter   Precond   Conv      Shift    
      1         120       60        1         1.00e-05  0.00e+00  
 ------------------------------------------------------------------------------
      Iter ConvRoots NVecs ResNorm Current eigenvalues (eV)
 ------------------------------------------------------------------------------
      0    0      1     3.92e-02   7.8791   
      1    0      2     8.36e-03   6.2479   
      2    0      3     3.64e-04   6.0438   
      3    0      4     1.77e-05   6.0433   
      4    1      5     1.78e-06   6.0419*  

     Davidson procedure converged

 EOMEE transition 1/A2
 Total energy = -74.72613176 a.u.  Excitation energy = 6.04186376 eV.
 R0^2 = 0.0000  R1^2 = 0.8840  R2^2 = 0.1160  Res^2 = 1.78e-06
 Conv-d = yes

 Amplitude    Transitions between orbitals
 -0.6648197941       1 (B2) A                  ->    2 (B1) A                   
  0.6648197941       1 (B2) B                  ->    2 (B1) B                   
  0.1678063229       3 (A1) A      1 (B2) B    ->    4 (A1) A      2 (B1) B     
 -0.1678063229       3 (A1) A      1 (B2) B    ->    2 (B1) B      4 (A1) A     
 -0.1678063229       1 (B2) A      3 (A1) B    ->    2 (B1) A      4 (A1) B     
  0.1678063229       1 (B2) A      3 (A1) B    ->    4 (A1) B      2 (B1) A     
  0.1678063229       3 (A1) B      1 (B2) A    ->    2 (B1) A      4 (A1) B     
 -0.1678063229       3 (A1) B      1 (B2) A    ->    4 (A1) B      2 (B1) A     
 -0.1678063229       1 (B2) B      3 (A1) A    ->    4 (A1) A      2 (B1) B     
  0.1678063229       1 (B2) B      3 (A1) A    ->    2 (B1) B      4 (A1) A     
 -0.1305317620       1 (B1) A      1 (B2) B    ->    4 (A1) A      4 (A1) B     
  0.1305317620       1 (B1) A      1 (B2) B    ->    4 (A1) B      4 (A1) A     
  0.1305317620       1 (B2) A      1 (B1) B    ->    4 (A1) A      4 (A1) B     
 -0.1305317620       1 (B2) A      1 (B1) B    ->    4 (A1) B      4 (A1) A     
 -0.1305317620       1 (B1) B      1 (B2) A    ->    4 (A1) A      4 (A1) B     
  0.1305317620       1 (B1) B      1 (B2) A    ->    4 (A1) B      4 (A1) A     
  0.1305317620       1 (B2) B      1 (B1) A    ->    4 (A1) A      4 (A1) B     
 -0.1305317620       1 (B2) B      1 (B1) A    ->    4 (A1) B      4 (A1) A     
 -0.0767120979       1 (B1) A      1 (B2) B    ->    2 (B1) A      2 (B1) B     
  0.0767120979       1 (B1) A      1 (B2) B    ->    2 (B1) B      2 (B1) A     
  0.0767120979       1 (B2) A      1 (B1) B    ->    2 (B1) A      2 (B1) B     
 -0.0767120979       1 (B2) A      1 (B1) B    ->    2 (B1) B      2 (B1) A     
 -0.0767120979       1 (B1) B      1 (B2) A    ->    2 (B1) A      2 (B1) B     
  0.0767120979       1 (B1) B      1 (B2) A    ->    2 (B1) B      2 (B1) A     
  0.0767120979       1 (B2) B      1 (B1) A    ->    2 (B1) A      2 (B1) B     
 -0.0767120979       1 (B2) B      1 (B1) A    ->    2 (B1) B      2 (B1) A     
  0.0733473206       3 (A1) A      1 (B2) B    ->    2 (B1) A      4 (A1) B     
 -0.0733473206       3 (A1) A      1 (B2) B    ->    4 (A1) B      2 (B1) A     
 -0.0733473206       1 (B2) A      3 (A1) B    ->    4 (A1) A      2 (B1) B     
  0.0733473206       1 (B2) A      3 (A1) B    ->    2 (B1) B      4 (A1) A     
  0.0733473206       3 (A1) B      1 (B2) A    ->    4 (A1) A      2 (B1) B     
 -0.0733473206       3 (A1) B      1 (B2) A    ->    2 (B1) B      4 (A1) A     
 -0.0733473206       1 (B2) B      3 (A1) A    ->    2 (B1) A      4 (A1) B     
  0.0733473206       1 (B2) B      3 (A1) A    ->    4 (A1) B      2 (B1) A     
  0.0367071073       2 (A1) A      1 (B2) B    ->    4 (A1) A      2 (B1) B     
 -0.0367071073       2 (A1) A      1 (B2) B    ->    2 (B1) B      4 (A1) A     
 -0.0367071073       1 (B2) A      2 (A1) B    ->    2 (B1) A      4 (A1) B     
  0.0367071073       1 (B2) A      2 (A1) B    ->    4 (A1) B      2 (B1) A     
  0.0367071073       2 (A1) B      1 (B2) A    ->    2 (B1) A      4 (A1) B     
 -0.0367071073       2 (A1) B      1 (B2) A    ->    4 (A1) B      2 (B1) A     
 -0.0367071073       1 (B2) B      2 (A1) A    ->    4 (A1) A      2 (B1) B     
  0.0367071073       1 (B2) B      2 (A1) A    ->    2 (B1) B      4 (A1) A     
 -0.0125121111       2 (A1) A      1 (B2) B    ->    2 (B1) A      4 (A1) B     
  0.0125121111       2 (A1) A      1 (B2) B    ->    4 (A1) B      2 (B1) A     
  0.0125121111       1 (B2) A      2 (A1) B    ->    4 (A1) A      2 (B1) B     
 -0.0125121111       1 (B2) A      2 (A1) B    ->    2 (B1) B      4 (A1) A     
 -0.0125121111       2 (A1) B      1 (B2) A    ->    4 (A1) A      2 (B1) B     
  0.0125121111       2 (A1) B      1 (B2) A    ->    2 (B1) B      4 (A1) A     
  0.0125121111       1 (B2) B      2 (A1) A    ->    2 (B1) A      4 (A1) B     
 -0.0125121111       1 (B2) B      2 (A1) A    ->    4 (A1) B      2 (B1) A     
 -0.0068446826       3 (A1) A      1 (B2) A    ->    4 (A1) A      2 (B1) A     
  0.0068446826       3 (A1) A      1 (B2) A    ->    2 (B1) A      4 (A1) A     
  0.0068446826       1 (B2) A      3 (A1) A    ->    4 (A1) A      2 (B1) A     
 -0.0068446826       1 (B2) A      3 (A1) A    ->    2 (B1) A      4 (A1) A     
  0.0068446826       3 (A1) B      1 (B2) B    ->    4 (A1) B      2 (B1) B     
 -0.0068446826       3 (A1) B      1 (B2) B    ->    2 (B1) B      4 (A1) B     
 -0.0068446826       1 (B2) B      3 (A1) B    ->    4 (A1) B      2 (B1) B     
  0.0068446826       1 (B2) B      3 (A1) B    ->    2 (B1) B      4 (A1) B     
  0.0013223976       2 (A1) A      1 (B2) A    ->    4 (A1) A      2 (B1) A     
 -0.0013223976       2 (A1) A      1 (B2) A    ->    2 (B1) A      4 (A1) A     
 -0.0013223976       1 (B2) A      2 (A1) A    ->    4 (A1) A      2 (B1) A     
  0.0013223976       1 (B2) A      2 (A1) A    ->    2 (B1) A      4 (A1) A     
 -0.0013223976       2 (A1) B      1 (B2) B    ->    4 (A1) B      2 (B1) B     
  0.0013223976       2 (A1) B      1 (B2) B    ->    2 (B1) B      4 (A1) B     
  0.0013223976       1 (B2) B      2 (A1) B    ->    4 (A1) B      2 (B1) B     
 -0.0013223976       1 (B2) B      2 (A1) B    ->    2 (B1) B      4 (A1) B     

              Summary of significant orbitals:

               Number  Type             Irrep      Energy
               2       Occ  Alpha       2 (A1)     -1.1635
               4       Occ  Alpha       3 (A1)     -0.4057
               3       Occ  Alpha       1 (B1)     -0.4695
               5       Occ  Alpha       1 (B2)     -0.3922
               2       Occ  Beta        2 (A1)     -1.1635
               4       Occ  Beta        3 (A1)     -0.4057
               3       Occ  Beta        1 (B1)     -0.4695
               5       Occ  Beta        1 (B2)     -0.3922
               6       Vir  Alpha       4 (A1)      0.3397
               7       Vir  Alpha       2 (B1)      0.4255
               6       Vir  Beta        4 (A1)      0.3397
               7       Vir  Beta        2 (B1)      0.4255


 EEs and amplitudes of EOMEE has be exported to fchk file
Running a double precision version
      EOM-CCSD/MP2 left amplitudes will be solved using Davidson.
        Amplitudes will be solved using MOM  algorithm.
     Hard-coded thresholds: 
     LinDepThresh=1.00e-15  NormThresh=1.00e-06  ReorthogonThresh=1.00e-02

      Roots     MaxVec    MaxIter   Precond   Conv      Shift    
      1         120       60        1         1.00e-05  0.00e+00  
 ------------------------------------------------------------------------------
      Iter ConvRoots NVecs ResNorm Current eigenvalues (eV)
 ------------------------------------------------------------------------------
      0    0      1     9.41e-04   6.0419   
      1    0      2     1.21e-04   6.0414   
      2    1      3     7.44e-06   6.0414*  

     Davidson procedure converged

 Excited state properties for  EOMEE-CCSD transition 1/A2
 Dipole moment (a.u.): 0.092215 (X 0.000000, Y 0.000000, Z -0.092215)
 R-squared (a.u.): 24.575157 (XX 12.250582, YY 4.116413, ZZ 8.208162)
 Gauge origin (a.u.): (0.000000, 0.000000, 0.000000)
 Angular momentum (a.u.) against gauge origin: 
 (X 0.000000i, Y 0.000000i, Z 0.000000i)
 Traces of the OPDMs: Tr(AA) 5.000000, Tr(BB) 5.000000

        Solving for EOMEE-CCSD B1 triplet states.

Running a double precision version
        EOMEE-CCSD/MP2 right amplitudes will be solved using Davidson.
        Amplitudes will be solved using standard  algorithm.
     Hard-coded thresholds: 
     LinDepThresh=1.00e-15  NormThresh=1.00e-06  ReorthogonThresh=1.00e-02

      Roots     MaxVec    MaxIter   Precond   Conv      Shift    
      1         120       60        1         1.00e-05  0.00e+00  
 ------------------------------------------------------------------------------
      Iter ConvRoots NVecs ResNorm Current eigenvalues (eV)
 ------------------------------------------------------------------------------
      0    0      1     3.71e-02   10.3334   
      1    0      2     1.64e-02   9.2960   
      2    0      3     1.08e-02   8.0144   
      3    0      4     2.18e-03   7.5028   
      4    0      5     2.18e-04   7.4216   
      5    0      6     6.15e-05   7.4177   
      6    1      7     8.34e-06   7.4178*  

     Davidson procedure converged

 EOMEE transition 1/B1
 Total energy = -74.67556879 a.u.  Excitation energy = 7.41775222 eV.
 R0^2 = 0.0000  R1^2 = 0.9767  R2^2 = 0.0233  Res^2 = 8.34e-06
 Conv-d = yes

 Amplitude    Transitions between orbitals
 -0.5098197428       3 (A1) A                  ->    2 (B1) A                   
  0.5098197428       3 (A1) B                  ->    2 (B1) B                   
  0.4773649209       1 (B1) A                  ->    4 (A1) A                   
 -0.4773649209       1 (B1) B                  ->    4 (A1) B                   
 -0.0233083201       2 (A1) A                  ->    2 (B1) A                   
  0.0233083201       2 (A1) B                  ->    2 (B1) B                   
  0.0615276762       3 (A1) A      3 (A1) B    ->    4 (A1) A      2 (B1) B     
 -0.0615276762       3 (A1) A      3 (A1) B    ->    2 (B1) A      4 (A1) B     
  0.0615276762       3 (A1) A      3 (A1) B    ->    4 (A1) B      2 (B1) A     
 -0.0615276762       3 (A1) A      3 (A1) B    ->    2 (B1) B      4 (A1) A     
 -0.0615276762       3 (A1) B      3 (A1) A    ->    4 (A1) A      2 (B1) B     
  0.0615276762       3 (A1) B      3 (A1) A    ->    2 (B1) A      4 (A1) B     
 -0.0615276762       3 (A1) B      3 (A1) A    ->    4 (A1) B      2 (B1) A     
  0.0615276762       3 (A1) B      3 (A1) A    ->    2 (B1) B      4 (A1) A     
  0.0605996702       3 (A1) A      1 (B1) B    ->    4 (A1) A      4 (A1) B     
 -0.0605996702       3 (A1) A      1 (B1) B    ->    4 (A1) B      4 (A1) A     
 -0.0605996702       1 (B1) A      3 (A1) B    ->    4 (A1) A      4 (A1) B     
  0.0605996702       1 (B1) A      3 (A1) B    ->    4 (A1) B      4 (A1) A     
  0.0605996702       3 (A1) B      1 (B1) A    ->    4 (A1) A      4 (A1) B     
 -0.0605996702       3 (A1) B      1 (B1) A    ->    4 (A1) B      4 (A1) A     
 -0.0605996702       1 (B1) B      3 (A1) A    ->    4 (A1) A      4 (A1) B     
  0.0605996702       1 (B1) B      3 (A1) A    ->    4 (A1) B      4 (A1) A     
 -0.0406361748       1 (B1) A      1 (B1) B    ->    4 (A1) A      2 (B1) B     
  0.0406361748       1 (B1) A      1 (B1) B    ->    2 (B1) A      4 (A1) B     
 -0.0406361748       1 (B1) A      1 (B1) B    ->    4 (A1) B      2 (B1) A     
  0.0406361748       1 (B1) A      1 (B1) B    ->    2 (B1) B      4 (A1) A     
  0.0406361748       1 (B1) B      1 (B1) A    ->    4 (A1) A      2 (B1) B     
 -0.0406361748       1 (B1) B      1 (B1) A    ->    2 (B1) A      4 (A1) B     
  0.0406361748       1 (B1) B      1 (B1) A    ->    4 (A1) B      2 (B1) A     
 -0.0406361748       1 (B1) B      1 (B1) A    ->    2 (B1) B      4 (A1) A     
 -0.0399426611       3 (A1) A      1 (B1) B    ->    2 (B1) A      2 (B1) B     
  0.0399426611       3 (A1) A      1 (B1) B    ->    2 (B1) B      2 (B1) A     
  0.0399426611       1 (B1) A      3 (A1) B    ->    2 (B1) A      2 (B1) B     
 -0.0399426611       1 (B1) A      3 (A1) B    ->    2 (B1) B      2 (B1) A     
 -0.0399426611       3 (A1) B      1 (B1) A    ->    2 (B1) A      2 (B1) B     
  0.0399426611       3 (A1) B      1 (B1) A    ->    2 (B1) B      2 (B1) A     
  0.0399426611       1 (B1) B      3 (A1) A    ->    2 (B1) A      2 (B1) B     
 -0.0399426611       1 (B1) B      3 (A1) A    ->    2 (B1) B      2 (B1) A     
  0.0225836086       2 (A1) A      3 (A1) B    ->    4 (A1) A      2 (B1) B     
 -0.0225836086       3 (A1) A      2 (A1) B    ->    2 (B1) A      4 (A1) B     
  0.0225836086       3 (A1) A      2 (A1) B    ->    4 (A1) B      2 (B1) A     
 -0.0225836086       2 (A1) A      3 (A1) B    ->    2 (B1) B      4 (A1) A     
 -0.0225836086       3 (A1) B      2 (A1) A    ->    4 (A1) A      2 (B1) B     
  0.0225836086       2 (A1) B      3 (A1) A    ->    2 (B1) A      4 (A1) B     
 -0.0225836086       2 (A1) B      3 (A1) A    ->    4 (A1) B      2 (B1) A     
  0.0225836086       3 (A1) B      2 (A1) A    ->    2 (B1) B      4 (A1) A     
 -0.0193372563       2 (A1) A      1 (B1) B    ->    2 (B1) A      2 (B1) B     
  0.0193372563       2 (A1) A      1 (B1) B    ->    2 (B1) B      2 (B1) A     
  0.0193372563       1 (B1) A      2 (A1) B    ->    2 (B1) A      2 (B1) B     
 -0.0193372563       1 (B1) A      2 (A1) B    ->    2 (B1) B      2 (B1) A     
 -0.0193372563       2 (A1) B      1 (B1) A    ->    2 (B1) A      2 (B1) B     
  0.0193372563       2 (A1) B      1 (B1) A    ->    2 (B1) B      2 (B1) A     
  0.0193372563       1 (B1) B      2 (A1) A    ->    2 (B1) A      2 (B1) B     
 -0.0193372563       1 (B1) B      2 (A1) A    ->    2 (B1) B      2 (B1) A     
  0.0062611646       2 (A1) A      1 (B1) B    ->    4 (A1) A      4 (A1) B     
 -0.0062611646       2 (A1) A      1 (B1) B    ->    4 (A1) B      4 (A1) A     
 -0.0062611646       1 (B1) A      2 (A1) B    ->    4 (A1) A      4 (A1) B     
  0.0062611646       1 (B1) A      2 (A1) B    ->    4 (A1) B      4 (A1) A     
  0.0062611646       2 (A1) B      1 (B1) A    ->    4 (A1) A      4 (A1) B     
 -0.0062611646       2 (A1) B      1 (B1) A    ->    4 (A1) B      4 (A1) A     
 -0.0062611646       1 (B1) B      2 (A1) A    ->    4 (A1) A      4 (A1) B     
  0.0062611646       1 (B1) B      2 (A1) A    ->    4 (A1) B      4 (A1) A     
 -0.0049758378       1 (B2) A      1 (B2) B    ->    4 (A1) A      2 (B1) B     
  0.0049758378       1 (B2) A      1 (B2) B    ->    2 (B1) A      4 (A1) B     
 -0.0049758378       1 (B2) A      1 (B2) B    ->    4 (A1) B      2 (B1) A     
  0.0049758378       1 (B2) A      1 (B2) B    ->    2 (B1) B      4 (A1) A     
  0.0049758378       1 (B2) B      1 (B2) A    ->    4 (A1) A      2 (B1) B     
 -0.0049758378       1 (B2) B      1 (B2) A    ->    2 (B1) A      4 (A1) B     
  0.0049758378       1 (B2) B      1 (B2) A    ->    4 (A1) B      2 (B1) A     
 -0.0049758378       1 (B2) B      1 (B2) A    ->    2 (B1) B      4 (A1) A     
 -0.0025538486       3 (A1) A      2 (A1) B    ->    4 (A1) A      2 (B1) B     
  0.0025538486       2 (A1) A      3 (A1) B    ->    2 (B1) A      4 (A1) B     
 -0.0025538486       2 (A1) A      3 (A1) B    ->    4 (A1) B      2 (B1) A     
  0.0025538486       3 (A1) A      2 (A1) B    ->    2 (B1) B      4 (A1) A     
  0.0025538486       2 (A1) B      3 (A1) A    ->    4 (A1) A      2 (B1) B     
 -0.0025538486       3 (A1) B      2 (A1) A    ->    2 (B1) A      4 (A1) B     
  0.0025538486       3 (A1) B      2 (A1) A    ->    4 (A1) B      2 (B1) A     
 -0.0025538486       2 (A1) B      3 (A1) A    ->    2 (B1) B      4 (A1) A     
 -0.0020386108       2 (A1) A      2 (A1) B    ->    4 (A1) A      2 (B1) B     
  0.0020386108       2 (A1) A      2 (A1) B    ->    2 (B1) A      4 (A1) B     
 -0.0020386108       2 (A1) A      2 (A1) B    ->    4 (A1) B      2 (B1) A     
  0.0020386108       2 (A1) A      2 (A1) B    ->    2 (B1) B      4 (A1) A     
  0.0020386108       2 (A1) B      2 (A1) A    ->    4 (A1) A      2 (B1) B     
 -0.0020386108       2 (A1) B      2 (A1) A    ->    2 (B1) A      4 (A1) B     
  0.0020386108       2 (A1) B      2 (A1) A    ->    4 (A1) B      2 (B1) A     
 -0.0020386108       2 (A1) B      2 (A1) A    ->    2 (B1) B      4 (A1) A     
  0.0000798226       2 (A1) A      3 (A1) A    ->    4 (A1) A      2 (B1) A     
 -0.0000798226       3 (A1) A      2 (A1) A    ->    4 (A1) A      2 (B1) A     
 -0.0000798226       2 (A1) A      3 (A1) A    ->    2 (B1) A      4 (A1) A     
  0.0000798226       3 (A1) A      2 (A1) A    ->    2 (B1) A      4 (A1) A     
 -0.0000798226       2 (A1) B      3 (A1) B    ->    4 (A1) B      2 (B1) B     
  0.0000798226       3 (A1) B      2 (A1) B    ->    4 (A1) B      2 (B1) B     
  0.0000798226       2 (A1) B      3 (A1) B    ->    2 (B1) B      4 (A1) B     
 -0.0000798226       3 (A1) B      2 (A1) B    ->    2 (B1) B      4 (A1) B     

              Summary of significant orbitals:

               Number  Type             Irrep      Energy
               2       Occ  Alpha       2 (A1)     -1.1635
               4       Occ  Alpha       3 (A1)     -0.4057
               3       Occ  Alpha       1 (B1)     -0.4695
               5       Occ  Alpha       1 (B2)     -0.3922
               2       Occ  Beta        2 (A1)     -1.1635
               4       Occ  Beta        3 (A1)     -0.4057
               3       Occ  Beta        1 (B1)     -0.4695
               5       Occ  Beta        1 (B2)     -0.3922
               6       Vir  Alpha       4 (A1)      0.3397
               7       Vir  Alpha       2 (B1)      0.4255
               6       Vir  Beta        4 (A1)      0.3397
               7       Vir  Beta        2 (B1)      0.4255


 EEs and amplitudes of EOMEE has be exported to fchk file
Running a double precision version
      EOM-CCSD/MP2 left amplitudes will be solved using Davidson.
        Amplitudes will be solved using MOM  algorithm.
     Hard-coded thresholds: 
     LinDepThresh=1.00e-15  NormThresh=1.00e-06  ReorthogonThresh=1.00e-02

      Roots     MaxVec    MaxIter   Precond   Conv      Shift    
      1         120       60        1         1.00e-05  0.00e+00  
 ------------------------------------------------------------------------------
      Iter ConvRoots NVecs ResNorm Current eigenvalues (eV)
 ------------------------------------------------------------------------------
      0    0      1     4.50e-04   7.4178   
      1    0      2     1.01e-04   7.4180   
      2    0      3     1.33e-05   7.4179   
      3    1      4     3.71e-06   7.4181*  

     Davidson procedure converged

 Excited state properties for  EOMEE-CCSD transition 1/B1
 Dipole moment (a.u.): 0.117851 (X 0.000000, Y 0.000000, Z -0.117851)
 R-squared (a.u.): 24.129705 (XX 11.627579, YY 4.698967, ZZ 7.803160)
 Gauge origin (a.u.): (0.000000, 0.000000, 0.000000)
 Angular momentum (a.u.) against gauge origin: 
 (X 0.000000i, Y 0.000000i, Z 0.000000i)
 Traces of the OPDMs: Tr(AA) 5.000000, Tr(BB) 5.000000

        Solving for EOMEE-CCSD B2 triplet states.

Running a double precision version
        EOMEE-CCSD/MP2 right amplitudes will be solved using Davidson.
        Amplitudes will be solved using standard  algorithm.
     Hard-coded thresholds: 
     LinDepThresh=1.00e-15  NormThresh=1.00e-06  ReorthogonThresh=1.00e-02

      Roots     MaxVec    MaxIter   Precond   Conv      Shift    
      1         120       60        1         1.00e-05  0.00e+00  
 ------------------------------------------------------------------------------
      Iter ConvRoots NVecs ResNorm Current eigenvalues (eV)
 ------------------------------------------------------------------------------
      0    0      1     4.51e-02   6.2847   
      1    0      2     2.73e-03   4.4056   
      2    0      3     8.60e-05   4.3467   
      3    1      4     5.37e-06   4.3508*  

     Davidson procedure converged

 EOMEE transition 1/B2
 Total energy = -74.78827792 a.u.  Excitation energy = 4.35078077 eV.
 R0^2 = 0.0000  R1^2 = 0.8992  R2^2 = 0.1008  Res^2 = 5.37e-06
 Conv-d = yes

 Amplitude    Transitions between orbitals
  0.6705321812       1 (B2) A                  ->    4 (A1) A                   
 -0.6705321812       1 (B2) B                  ->    4 (A1) B                   
  0.1582565910       1 (B1) A      1 (B2) B    ->    2 (B1) A      4 (A1) B     
 -0.1582565910       1 (B1) A      1 (B2) B    ->    4 (A1) B      2 (B1) A     
 -0.1582565910       1 (B2) A      1 (B1) B    ->    4 (A1) A      2 (B1) B     
  0.1582565910       1 (B2) A      1 (B1) B    ->    2 (B1) B      4 (A1) A     
  0.1582565910       1 (B1) B      1 (B2) A    ->    4 (A1) A      2 (B1) B     
 -0.1582565910       1 (B1) B      1 (B2) A    ->    2 (B1) B      4 (A1) A     
 -0.1582565910       1 (B2) B      1 (B1) A    ->    2 (B1) A      4 (A1) B     
  0.1582565910       1 (B2) B      1 (B1) A    ->    4 (A1) B      2 (B1) A     
 -0.1083058436       3 (A1) A      1 (B2) B    ->    4 (A1) A      4 (A1) B     
  0.1083058436       3 (A1) A      1 (B2) B    ->    4 (A1) B      4 (A1) A     
  0.1083058436       1 (B2) A      3 (A1) B    ->    4 (A1) A      4 (A1) B     
 -0.1083058436       1 (B2) A      3 (A1) B    ->    4 (A1) B      4 (A1) A     
 -0.1083058436       3 (A1) B      1 (B2) A    ->    4 (A1) A      4 (A1) B     
  0.1083058436       3 (A1) B      1 (B2) A    ->    4 (A1) B      4 (A1) A     
  0.1083058436       1 (B2) B      3 (A1) A    ->    4 (A1) A      4 (A1) B     
 -0.1083058436       1 (B2) B      3 (A1) A    ->    4 (A1) B      4 (A1) A     
 -0.0999658386       3 (A1) A      1 (B2) B    ->    2 (B1) A      2 (B1) B     
  0.0999658386       3 (A1) A      1 (B2) B    ->    2 (B1) B      2 (B1) A     
  0.0999658386       1 (B2) A      3 (A1) B    ->    2 (B1) A      2 (B1) B     
 -0.0999658386       1 (B2) A      3 (A1) B    ->    2 (B1) B      2 (B1) A     
 -0.0999658386       3 (A1) B      1 (B2) A    ->    2 (B1) A      2 (B1) B     
  0.0999658386       3 (A1) B      1 (B2) A    ->    2 (B1) B      2 (B1) A     
  0.0999658386       1 (B2) B      3 (A1) A    ->    2 (B1) A      2 (B1) B     
 -0.0999658386       1 (B2) B      3 (A1) A    ->    2 (B1) B      2 (B1) A     
  0.0578016325       1 (B1) A      1 (B2) B    ->    4 (A1) A      2 (B1) B     
 -0.0578016325       1 (B1) A      1 (B2) B    ->    2 (B1) B      4 (A1) A     
 -0.0578016325       1 (B2) A      1 (B1) B    ->    2 (B1) A      4 (A1) B     
  0.0578016325       1 (B2) A      1 (B1) B    ->    4 (A1) B      2 (B1) A     
  0.0578016325       1 (B1) B      1 (B2) A    ->    2 (B1) A      4 (A1) B     
 -0.0578016325       1 (B1) B      1 (B2) A    ->    4 (A1) B      2 (B1) A     
 -0.0578016325       1 (B2) B      1 (B1) A    ->    4 (A1) A      2 (B1) B     
  0.0578016325       1 (B2) B      1 (B1) A    ->    2 (B1) B      4 (A1) A     
  0.0142816261       1 (B1) A      1 (B2) A    ->    4 (A1) A      2 (B1) A     
 -0.0142816261       1 (B1) A      1 (B2) A    ->    2 (B1) A      4 (A1) A     
 -0.0142816261       1 (B2) A      1 (B1) A    ->    4 (A1) A      2 (B1) A     
  0.0142816261       1 (B2) A      1 (B1) A    ->    2 (B1) A      4 (A1) A     
 -0.0142816261       1 (B1) B      1 (B2) B    ->    4 (A1) B      2 (B1) B     
  0.0142816261       1 (B1) B      1 (B2) B    ->    2 (B1) B      4 (A1) B     
  0.0142816261       1 (B2) B      1 (B1) B    ->    4 (A1) B      2 (B1) B     
 -0.0142816261       1 (B2) B      1 (B1) B    ->    2 (B1) B      4 (A1) B     
 -0.0084679839       2 (A1) A      1 (B2) B    ->    2 (B1) A      2 (B1) B     
  0.0084679839       2 (A1) A      1 (B2) B    ->    2 (B1) B      2 (B1) A     
  0.0084679839       1 (B2) A      2 (A1) B    ->    2 (B1) A      2 (B1) B     
 -0.0084679839       1 (B2) A      2 (A1) B    ->    2 (B1) B      2 (B1) A     
 -0.0084679839       2 (A1) B      1 (B2) A    ->    2 (B1) A      2 (B1) B     
  0.0084679839       2 (A1) B      1 (B2) A    ->    2 (B1) B      2 (B1) A     
  0.0084679839       1 (B2) B      2 (A1) A    ->    2 (B1) A      2 (B1) B     
 -0.0084679839       1 (B2) B      2 (A1) A    ->    2 (B1) B      2 (B1) A     
 -0.0011917848       2 (A1) A      1 (B2) B    ->    4 (A1) A      4 (A1) B     
  0.0011917848       2 (A1) A      1 (B2) B    ->    4 (A1) B      4 (A1) A     
  0.0011917848       1 (B2) A      2 (A1) B    ->    4 (A1) A      4 (A1) B     
 -0.0011917848       1 (B2) A      2 (A1) B    ->    4 (A1) B      4 (A1) A     
 -0.0011917848       2 (A1) B      1 (B2) A    ->    4 (A1) A      4 (A1) B     
  0.0011917848       2 (A1) B      1 (B2) A    ->    4 (A1) B      4 (A1) A     
  0.0011917848       1 (B2) B      2 (A1) A    ->    4 (A1) A      4 (A1) B     
 -0.0011917848       1 (B2) B      2 (A1) A    ->    4 (A1) B      4 (A1) A     

              Summary of significant orbitals:

               Number  Type             Irrep      Energy
               2       Occ  Alpha       2 (A1)     -1.1635
               4       Occ  Alpha       3 (A1)     -0.4057
               3       Occ  Alpha       1 (B1)     -0.4695
               5       Occ  Alpha       1 (B2)     -0.3922
               2       Occ  Beta        2 (A1)     -1.1635
               4       Occ  Beta        3 (A1)     -0.4057
               3       Occ  Beta        1 (B1)     -0.4695
               5       Occ  Beta        1 (B2)     -0.3922
               6       Vir  Alpha       4 (A1)      0.3397
               7       Vir  Alpha       2 (B1)      0.4255
               6       Vir  Beta        4 (A1)      0.3397
               7       Vir  Beta        2 (B1)      0.4255


 EEs and amplitudes of EOMEE has be exported to fchk file
Running a double precision version
      EOM-CCSD/MP2 left amplitudes will be solved using Davidson.
        Amplitudes will be solved using MOM  algorithm.
     Hard-coded thresholds: 
     LinDepThresh=1.00e-15  NormThresh=1.00e-06  ReorthogonThresh=1.00e-02

      Roots     MaxVec    MaxIter   Precond   Conv      Shift    
      1         120       60        1         1.00e-05  0.00e+00  
 ------------------------------------------------------------------------------
      Iter ConvRoots NVecs ResNorm Current eigenvalues (eV)
 ------------------------------------------------------------------------------
      0    0      1     1.38e-03   4.3508   
      1    0      2     5.12e-05   4.3494   
      2    1      3     2.03e-06   4.3494*  

     Davidson procedure converged

 Excited state properties for  EOMEE-CCSD transition 1/B2
 Dipole moment (a.u.): 0.007214 (X 0.000000, Y 0.000000, Z 0.007214)
 R-squared (a.u.): 24.641623 (XX 12.115165, YY 4.180502, ZZ 8.345956)
 Gauge origin (a.u.): (0.000000, 0.000000, 0.000000)
 Angular momentum (a.u.) against gauge origin: 
 (X 0.000000i, Y 0.000000i, Z 0.000000i)
 Traces of the OPDMs: Tr(AA) 5.000000, Tr(BB) 5.000000

 EOMEE-CCSD calculation:   CPU 12.14 s  wall 3.77 s

 Total ccman2 time:   CPU 18.45 s  wall 7.42 s


 --------------------------------------------------------------
             Orbital Energies (a.u.) and Symmetries
 --------------------------------------------------------------

 Alpha MOs, Restricted
 -- Occupied --                  
-20.291  -1.164  -0.470  -0.406  -0.392
  1 A1    2 A1    1 B1    3 A1    1 B2                                         
 -- Virtual --                   
  0.340   0.426
  4 A1    2 B1                                                                 

 Beta MOs, Restricted
 -- Occupied --                  
-20.291  -1.164  -0.470  -0.406  -0.392
  1 A1    2 A1    1 B1    3 A1    1 B2                                         
 -- Virtual --                   
  0.340   0.426
  4 A1    2 B1                                                                 
 --------------------------------------------------------------

          Ground-State Mulliken Net Atomic Charges

     Atom                 Charge (a.u.)
  ----------------------------------------
      1 O                    -0.103232
      2 H                     0.051616
      3 H                     0.051616
  ----------------------------------------
  Sum of atomic charges =     0.000000

 -----------------------------------------------------------------
                    Cartesian Multipole Moments
 -----------------------------------------------------------------
    Charge (ESU x 10^10)
                 0.0000
    Dipole Moment (Debye)
         X      -0.0000      Y       0.0000      Z      -0.9507
       Tot       0.9507
    Quadrupole Moments (Debye-Ang)
        XX      -4.6751     XY       0.0000     YY      -6.3359
        XZ       0.0000     YZ      -0.0000     ZZ      -5.4784
    Octopole Moments (Debye-Ang^2)
       XXX      -0.0000    XXY       0.0000    XYY      -0.0000
       YYY       0.0000    XXZ      -0.4301    XYZ      -0.0000
       YYZ       0.2375    XZZ      -0.0000    YZZ      -0.0000
       ZZZ       0.6384
    Hexadecapole Moments (Debye-Ang^3)
      XXXX     -11.4308   XXXY      -0.0000   XXYY      -2.7508
      XYYY      -0.0000   YYYY      -3.5289   XXXZ       0.0000
      XXYZ      -0.0000   XYYZ       0.0000   YYYZ      -0.0000
      XXZZ      -2.7842   XYZZ       0.0000   YYZZ      -1.8652
      XZZZ       0.0000   YZZZ      -0.0000   ZZZZ      -7.2980
 -----------------------------------------------------------------
 Total job time:  11.06s(wall), 20.40s(cpu) 
 Mon Sep  5 11:53:14 2022

        *************************************************************
        *                                                           *
        *  Thank you very much for using Q-Chem.  Have a nice day.  *
        *                                                           *
        *************************************************************


