                  Welcome to Q-Chem
     A Quantum Leap Into The Future Of Chemistry


 Q-Chem 5.4 (devel), Q-Chem, Inc., Pleasanton, CA (2021)

 E. Epifanovsky,  A. T. B. Gilbert,  Xintian Feng,  Joonho Lee,  Yuezhi Mao,  
 N. Mardirossian,  P. Pokhilko,  A. White,  M. Wormit,  M. P. Coons,  
 A. L. Dempwolff,  Zhengting Gan,  D. Hait,  P. R. Horn,  L. D. Jacobson,  
 I. Kaliman,  J. Kussmann,  A. W. Lange,  Ka Un Lao,  D. S. Levine,  Jie Liu,  
 S. C. McKenzie,  A. F. Morrison,  K. Nanda,  F. Plasser,  D. R. Rehn,  
 M. L. Vidal,  Zhi-Qiang You,  Ying Zhu,  B. Alam,  B. Albrecht,  
 A. Aldossary,  E. Alguire,  J. H. Andersen,  D. Barton,  K. Begam,  A. Behn,  
 Y. A. Bernard,  E. J. Berquist,  H. Burton,  A. Carreras,  K. Carter-Fenk,  
 R. Chakraborty,  A. D. Chien,  K. D. Closser,  V. Cofer-Shabica,  
 S. Dasgupta,  Jia Deng,  M. de Wergifosse,  M. Diedenhofen,  Hainam Do,  
 S. Ehlert,  Po-Tung Fang,  S. Fatehi,  Qingguo Feng,  T. Friedhoff,  
 J. Gayvert,  Qinghui Ge,  G. Gidofalvi,  M. Goldey,  J. Gomes,  
 C. Gonzalez-Espinoza,  S. Gulania,  A. Gunina,  M. W. D. Hanson-Heine,  
 P. H. P. Harbach,  A. W. Hauser,  M. F. Herbst,  M. Hernandez Vera,  
 M. Hodecker,  Z. C. Holden,  S. Houck,  Xunkun Huang,  Kerwin Hui,  
 B. C. Huynh,  M. Ivanov,  Hyunjun Ji,  Hanjie Jiang,  B. Kaduk,  S. Kaehler,  
 K. Khistyaev,  Jaehoon Kim,  P. Klunzinger,  Z. Koczor-Benda,  
 Joong Hoon Koh,  D. Kosenkov,  L. Koulias,  T. Kowalczyk,  C. M. Krauter,  
 K. Kue,  A. Kunitsa,  T. Kus,  A. Landau,  K. V. Lawler,  D. Lefrancois,  
 S. Lehtola,  Rain Li,  Yi-Pei Li,  Jiashu Liang,  M. Liebenthal,  
 Hung-Hsuan Lin,  You-Sheng Lin,  Fenglai Liu,  Kuan-Yu Liu,  
 M. Loipersberger,  A. Luenser,  A. Manjanath,  P. Manohar,  E. Mansoor,  
 S. F. Manzer,  Shan-Ping Mao,  A. V. Marenich,  T. Markovich,  S. Mason,  
 S. A. Maurer,  P. F. McLaughlin,  M. F. S. J. Menger,  J.-M. Mewes,  
 S. A. Mewes,  P. Morgante,  J. W. Mullinax,  K. J. Oosterbaan,  G. Paran,  
 Alexander C. Paul,  Suranjan K. Paul,  F. Pavosevic,  Zheng Pei,  S. Prager,  
 E. I. Proynov,  E. Ramos,  B. Rana,  A. E. Rask,  A. Rettig,  R. M. Richard,  
 F. Rob,  E. Rossomme,  T. Scheele,  M. Scheurer,  M. Schneider,  
 N. Sergueev,  S. M. Sharada,  W. Skomorowski,  D. W. Small,  C. J. Stein,  
 Yu-Chuan Su,  E. J. Sundstrom,  Zhen Tao,  J. Thirman,  T. Tsuchimochi,  
 N. M. Tubman,  S. P. Veccham,  O. Vydrov,  J. Wenzel,  J. Witte,  A. Yamada,  
 Kun Yao,  S. Yeganeh,  S. R. Yost,  A. Zech,  Igor Ying Zhang,  Xing Zhang,  
 Yu Zhang,  D. Zuev,  A. Aspuru-Guzik,  A. T. Bell,  N. A. Besley,  
 K. B. Bravaya,  B. R. Brooks,  D. Casanova,  Jeng-Da Chai,  S. Coriani,  
 C. J. Cramer,  A. E. DePrince, III,  R. A. DiStasio Jr.,  A. Dreuw,  
 B. D. Dunietz,  T. R. Furlani,  W. A. Goddard III,  S. Grimme,  
 S. Hammes-Schiffer,  T. Head-Gordon,  W. J. Hehre,  Chao-Ping Hsu,  
 T.-C. Jagau,  Yousung Jung,  A. Klamt,  Jing Kong,  D. S. Lambrecht,  
 WanZhen Liang,  N. J. Mayhall,  C. W. McCurdy,  J. B. Neaton,  
 C. Ochsenfeld,  J. A. Parkhill,  R. Peverati,  V. A. Rassolov,  Yihan Shao,  
 L. V. Slipchenko,  T. Stauch,  R. P. Steele,  J. E. Subotnik,  
 A. J. W. Thom,  A. Tkatchenko,  D. G. Truhlar,  T. Van Voorhis,  
 T. A. Wesolowski,  K. B. Whaley,  H. L. Woodcock III,  P. M. Zimmerman,  
 S. Faraji,  P. M. W. Gill,  M. Head-Gordon,  J. M. Herbert,  A. I. Krylov

 Additional authors for Version 5.4.1: 
 S. Kotaru,  Shaozhi Li,  Xiangyuan Li,  F. Matz,  A. Molle,  Haisheng Ren,  
 Yingli Su,  Hung-Yi Tsai,  C. Utku,  Fang Wang

 Contributors to earlier versions of Q-Chem not listed above: 
 R. D. Adamson,  B. Austin,  R. Baer,  J. Baker,  G. J. O. Beran,  
 K. Brandhorst,  S. T. Brown,  E. F. C. Byrd,  A. K. Chakraborty,  
 G. K. L. Chan,  Chun-Min Chang,  Yunqing Chen,  C.-L. Cheng,  
 Siu Hung Chien,  D. M. Chipman,  D. L. Crittenden,  H. Dachsel,  
 R. J. Doerksen,  A. D. Dutoi,  R. G. Edgar,  J. Fosso-Tande,  
 L. Fusti-Molnar,  D. Ghosh,  A. Ghysels,  A. Golubeva-Zadorozhnaya,  
 J. Gonthier,  M. S. Gordon,  S. R. Gwaltney,  G. Hawkins,  J. E. Herr,  
 A. Heyden,  S. Hirata,  E. G. Hohenstein,  G. Kedziora,  F. J. Keil,  
 C. Kelley,  Jihan Kim,  R. A. King,  R. Z. Khaliullin,  P. P. Korambath,  
 W. Kurlancheek,  A. Laurent,  A. M. Lee,  M. S. Lee,  S. V. Levchenko,  
 Ching Yeh Lin,  D. Liotard,  E. Livshits,  R. C. Lochan,  I. Lotan,  
 L. A. Martinez-Martinez,  P. E. Maslen,  N. Nair,  D. P. O'Neill,  
 D. Neuhauser,  E. Neuscamman,  C. M. Oana,  R. Olivares-Amaya,  R. Olson,  
 T. M. Perrine,  B. Peters,  P. A. Pieniazek,  A. Prociuk,  Y. M. Rhee,  
 J. Ritchie,  M. A. Rohrdanz,  E. Rosta,  N. J. Russ,  H. F. Schaefer III,  
 M. W. Schmidt,  N. E. Schultz,  S. Sharma,  N. Shenvi,  C. D. Sherrill,  
 A. C. Simmonett,  A. Sodt,  T. Stein,  D. Stuck,  K. S. Thanthiriwatte,  
 V. Vanovschi,  L. Vogt,  Tao Wang,  A. Warshel,  M. A. Watson,  
 C. F. Williams,  Q. Wu,  X. Xu,  Jun Yang,  W. Zhang,  Yan Zhao

 Please cite Q-Chem as follows:
 Y. Shao et al., Mol. Phys. 113, 184-215 (2015)
 DOI: 10.1080/00268976.2014.952696

 Q-Chem 5.4.1 for Intel X86 EM64T Linux

 Parts of Q-Chem use Armadillo 9.900.5 (Nocturnal Misbehaviour).
 http://arma.sourceforge.net/

 Q-Chem begins on Sun Sep  4 11:45:47 2022  

orc44
 Host: 0

     Scratch files written to /scratch/yongbin/qchem30242//
 Processing $rem in /home/users/yongbin/software/yongbin_quantum/config/preferences:
 Processing $rem in /home/users/yongbin/.qchemrc:

 Checking the input file for inconsistencies... 	...done.

--------------------------------------------------------------
User input:
--------------------------------------------------------------
$comment
Water molecule
$end

$molecule
0 1
O
H O 1.3
H O 1.3 H 104.5
$end

$rem
   n_frozen_core = 0
   print_qis = true
   BASIS                = sto-3g
!   SYMMETRY             = true
!   CC_SYMMETRY          = false
   METHOD               = eom-ccsd
   EE_SINGLETS          = [1,1,1,1] ! Compute two EOM-EE singlet excited states
   EE_TRIPLETS          = [1,1,1,1] ! Compute two EOM-EE triplet excited states
   CC_REF_PROP          = true ! Compute ground state properties
   CC_EOM_PROP          = true ! Compute excited state properties
!   CC_OSFNO             = true
   GUI                  = 2
$end
--------------------------------------------------------------
 ----------------------------------------------------------------
             Standard Nuclear Orientation (Angstroms)
    I     Atom           X                Y                Z
 ----------------------------------------------------------------
    1      O      -0.0000000000     0.0000000000     0.1591764928
    2      H      -1.0278964459    -0.0000000000    -0.6367059712
    3      H       1.0278964459    -0.0000000000    -0.6367059712
 ----------------------------------------------------------------
 Molecular Point Group                 C2v   NOp =  4
 Largest Abelian Subgroup              C2v   NOp =  4
 Nuclear Repulsion Energy =           6.77035813 hartrees
 There are        5 alpha and        5 beta electrons
 Requested basis set is STO-3G
 There are 4 shells and 7 basis functions
 Total memory of 2000 MB is distributed as follows: 
   MEM_STATIC is set to 192 MB
   QALLOC/CCMAN JOB total memory use is  1808 MB
 Warning: actual memory use might exceed 2000 MB

 Total QAlloc Memory Limit   2000 MB
 Mega-Array Size       188 MB
 MEM_STATIC part       192 MB

                       Distance Matrix (Angstroms)
             O (  1)   H (  2)
   H (  2)  1.300000
   H (  3)  1.300000  2.055793

 A cutoff of  1.0D-14 yielded     10 shell pairs
 There are        34 function pairs
 Smallest overlap matrix eigenvalue = 5.49E-01

 Scale SEOQF with 1.000000e+00/1.000000e+00/1.000000e+00

 Standard Electronic Orientation quadrupole field applied
 Nucleus-field energy     =    -0.0000000003 hartrees
 Guess from superposition of atomic densities
 Warning:  Energy on first SCF cycle will be non-variational
 SAD guess density has 10.000000 electrons

 -----------------------------------------------------------------------
  General SCF calculation program by
  Eric Jon Sundstrom, Paul Horn, Yuezhi Mao, Dmitri Zuev, Alec White,
  David Stuck, Shaama M.S., Shane Yost, Joonho Lee, David Small,
  Daniel Levine, Susi Lehtola, Hugh Burton, Evgeny Epifanovsky,
  Bang C. Huynh
 -----------------------------------------------------------------------
 Hartree-Fock
 using 20 threads for integral computing
 -------------------------------------------------------
 OpenMP Integral computing Module                
 Release: version 1.0, May 2013, Q-Chem Inc. Pittsburgh 
 -------------------------------------------------------
 A restricted SCF calculation will be
 performed using DIIS
 SCF converges when DIIS error is below 1.0e-08
 ---------------------------------------
  Cycle       Energy         DIIS error
 ---------------------------------------
    1     -74.0748038206      2.00e-01  
    2     -74.7585304802      8.36e-02  
    3     -74.8315671327      2.16e-02  
    4     -74.8361157750      1.27e-03  
    5     -74.8361339111      1.95e-04  
    6     -74.8361345835      8.41e-05  
    7     -74.8361348178      4.41e-07  
    8     -74.8361348178      1.03e-09  Convergence criterion met
 ---------------------------------------
 SCF time:   CPU 0.89s  wall 0.00s 
 SCF   energy in the final basis set =      -74.8361348178
 Total energy in the final basis set =      -74.8361348178


 ------------------------------------------------------------------------------

   CCMAN2: suite of methods based on coupled cluster
           and equation of motion theories.

   Components:
   * libvmm-1.3-trunk
     by Evgeny Epifanovsky, Ilya Kaliman.
   * libtensor-2.5-trunk
     by Evgeny Epifanovsky, Michael Wormit, Dmitry Zuev, Sam Manzer, 
        Ilya Kaliman.
   * libcc-2.5-trunk
     by Evgeny Epifanovsky, Arik Landau, Tomasz Kus, Kirill Khistyaev, 
        Dmitry Zuev, Prashant Manohar, Xintian Feng, Anna Krylov, 
        Matthew Goldey, Alec White, Thomas Jagau, Kaushik Nanda, 
        Anastasia Gunina, Alexander Kunitsa, Joonho Lee.

   CCMAN original authors:
   Anna I. Krylov, C. David Sherrill, Steven R. Gwaltney,
   Edward F. C. Byrd (2000)
   Sergey V. Levchenko, Lyudmila V. Slipchenko, Tao Wang,
   Ana-Maria C. Cristian (2003)
   Piotr A. Pieniazek, C. Melania Oana, Evgeny Epifanovsky (2007)
   Prashant Manohar (2009)

 ------------------------------------------------------------------------------


 Allocating and initializing 1808MB of RAM...
 Calculation will run on 20 cores.


 Alpha MOs, Restricted
 -- Occupied --                  
-20.291  -1.164  -0.470  -0.406  -0.392
  1 A1    2 A1    1 B1    3 A1    1 B2                                         
 -- Virtual --                   
  0.340   0.426
  4 A1    2 B1                                                                 

 Beta MOs, Restricted
 -- Occupied --                  
-20.291  -1.164  -0.470  -0.406  -0.392
  1 A1    2 A1    1 B1    3 A1    1 B2                                         
 -- Virtual --                   
  0.340   0.426
  4 A1    2 B1                                                                 

 Occupation and symmetry of molecular orbitals

 Point group: C2v (4 irreducible representations).

                           A1   A2   B1   B2    All 
 ----------------------------------------------------
 All molecular orbitals:
  - Alpha                  4    0    2    1     7   
  - Beta                   4    0    2    1     7   
 ----------------------------------------------------
 Alpha orbitals:
  - Frozen occupied        0    0    0    0     0   
  - Active occupied        3    0    1    1     5   
  - Active virtual         1    0    1    0     2   
  - Frozen virtual         0    0    0    0     0   
 ----------------------------------------------------
 Beta orbitals:
  - Frozen occupied        0    0    0    0     0   
  - Active occupied        3    0    1    1     5   
  - Active virtual         1    0    1    0     2   
  - Frozen virtual         0    0    0    0     0   
 ----------------------------------------------------

 Import integrals:   CPU 0.00 s  wall 0.00 s

 Import integrals:   CPU 0.16 s  wall 0.03 s

 Run QIS:   CPU 0.01 s  wall 0.02 s

 MP2 amplitudes:   CPU 0.02 s  wall 0.02 s

Running a double precision version
           CCSD T amplitudes will be solved using DIIS.

           Start     Size      MaxIter   EConv     TConv     
           3         7         100       1.00e-06  1.00e-04  
 ------------------------------------------------------------------------------
           Energy (a.u.)   Ediff      Tdiff       Comment
 ------------------------------------------------------------------------------
           -74.91130728                           
     1     -74.93235895   2.11e-02   2.74e-01     
     2     -74.94055867   8.20e-03   7.42e-02     
     3     -74.94434698   3.79e-03   3.33e-02     
     4     -74.94801568   3.67e-03   2.88e-02     Switched to DIIS steps.
     5     -74.94815149   1.36e-04   4.34e-03     
     6     -74.94821360   6.21e-05   1.29e-03     
     7     -74.94821496   1.36e-06   2.32e-04     
     8     -74.94821419   7.70e-07   9.59e-05     
 ------------------------------------------------------------------------------
           -74.94821419                           CCSD T converged.

End of double precision
 SCF energy                 = -74.83613482
 MP2 energy                 = -74.91130728
 CCSD correlation energy    =  -0.11207937
 CCSD total energy          = -74.94821419

 CCSD  T1^2 = 0.0027  T2^2 = 0.1069  Leading amplitudes:

 Amplitude    Orbitals with energies
 0.0348727046       3 (A1) A                  ->    4 (A1) A                   
                   -0.4057                          0.3397                     
 0.0348727046       3 (A1) B                  ->    4 (A1) B                   
                   -0.4057                          0.3397                     
 0.0107525070       2 (A1) A                  ->    4 (A1) A                   
                   -1.1635                          0.3397                     
 0.0107525070       2 (A1) B                  ->    4 (A1) B                   
                   -1.1635                          0.3397                     

 Amplitude    Orbitals with energies
 -0.1444463615       3 (A1) A      3 (A1) B    ->    4 (A1) A      4 (A1) B     
                    -0.4057       -0.4057            0.3397        0.3397       
  0.1444463615       3 (A1) A      3 (A1) B    ->    4 (A1) B      4 (A1) A     
                    -0.4057       -0.4057            0.3397        0.3397       
  0.1444463615       3 (A1) B      3 (A1) A    ->    4 (A1) A      4 (A1) B     
                    -0.4057       -0.4057            0.3397        0.3397       
 -0.1444463615       3 (A1) B      3 (A1) A    ->    4 (A1) B      4 (A1) A     
                    -0.4057       -0.4057            0.3397        0.3397       
 -0.1410093560       1 (B1) A      1 (B1) B    ->    2 (B1) A      2 (B1) B     
                    -0.4695       -0.4695            0.4255        0.4255       
  0.1410093560       1 (B1) A      1 (B1) B    ->    2 (B1) B      2 (B1) A     
                    -0.4695       -0.4695            0.4255        0.4255       
  0.1410093560       1 (B1) B      1 (B1) A    ->    2 (B1) A      2 (B1) B     
                    -0.4695       -0.4695            0.4255        0.4255       
 -0.1410093560       1 (B1) B      1 (B1) A    ->    2 (B1) B      2 (B1) A     
                    -0.4695       -0.4695            0.4255        0.4255       
  0.1130437477       3 (A1) A      1 (B1) B    ->    4 (A1) A      2 (B1) B     
                    -0.4057       -0.4695            0.3397        0.4255       
 -0.1130437477       3 (A1) A      1 (B1) B    ->    2 (B1) B      4 (A1) A     
                    -0.4057       -0.4695            0.4255        0.3397       
  0.1130437477       1 (B1) A      3 (A1) B    ->    2 (B1) A      4 (A1) B     
                    -0.4695       -0.4057            0.4255        0.3397       
 -0.1130437477       1 (B1) A      3 (A1) B    ->    4 (A1) B      2 (B1) A     
                    -0.4695       -0.4057            0.3397        0.4255       
 -0.1130437477       3 (A1) B      1 (B1) A    ->    2 (B1) A      4 (A1) B     
                    -0.4057       -0.4695            0.4255        0.3397       
  0.1130437477       3 (A1) B      1 (B1) A    ->    4 (A1) B      2 (B1) A     
                    -0.4057       -0.4695            0.3397        0.4255       
 -0.1130437477       1 (B1) B      3 (A1) A    ->    4 (A1) A      2 (B1) B     
                    -0.4695       -0.4057            0.3397        0.4255       
  0.1130437477       1 (B1) B      3 (A1) A    ->    2 (B1) B      4 (A1) A     
                    -0.4695       -0.4057            0.4255        0.3397       

 Computing CCSD intermediates for later calculations in double precision
 Finished.

Running a double precision version
           CCSD Lambda amplitudes will be solved using DIIS.
           Start     Size      MaxIter   EConv     LConv     
           3         7         100       1.00e-06  1.00e-04  
 ------------------------------------------------------------------------------
            Enorm      Ldiff       Comment
 ------------------------------------------------------------------------------
     1     2.92e-02   2.24e-02     
     2     6.52e-03   5.83e-03     
     3     2.83e-03   2.24e-03     
     4     6.75e-04   1.60e-03     Switched to DIIS steps.
     5     1.56e-04   3.94e-04     
     6     3.29e-05   2.05e-05     
     7     5.22e-06   8.00e-07     
     8     1.21e-06   7.47e-07     
     9     3.04e-07   2.80e-08     
 ------------------------------------------------------------------------------
                                   CCSD Lambda converged.

 Computing density matrices in double precision...
 Computing density matrices... Done.
 Reference state properties
 Dipole moment (a.u.): 0.373954 (X 0.000000, Y 0.000000, Z -0.373954)
 R-squared (a.u.): 23.425271 (XX 11.022264, YY 4.710607, ZZ 7.692400)
 Gauge origin (a.u.): (0.000000, 0.000000, 0.000000)
 Angular momentum (a.u.) against gauge origin: 
 (X 0.000000i, Y 0.000000i, Z 0.000000i)
 Traces of the OPDMs: Tr(AA) 5.000000, Tr(BB) 5.000000
 Density matrix was written to a file for further analysis.

 CCSD calculation:   CPU 4.21 s  wall 1.02 s

        Solving for EOMEE-CCSD A1 singlet states.

Running a double precision version
        EOMEE-CCSD/MP2 right amplitudes will be solved using Davidson.
        Amplitudes will be solved using standard  algorithm.
     Hard-coded thresholds: 
     LinDepThresh=1.00e-15  NormThresh=1.00e-06  ReorthogonThresh=1.00e-02

      Roots     MaxVec    MaxIter   Precond   Conv      Shift    
      1         120       60        1         1.00e-05  0.00e+00  
 ------------------------------------------------------------------------------
      Iter ConvRoots NVecs ResNorm Current eigenvalues (eV)
 ------------------------------------------------------------------------------
      0    0      1     7.84e-02   14.7193   
      1    0      2     5.57e-01   13.2788   
      2    0      3     1.33e-02   11.0419   
      3    0      4     2.71e-03   10.7365   
      4    0      5     1.68e-03   10.7107   
      5    0      6     1.21e-03   10.7020   
      6    0      7     2.13e-04   10.6945   
      7    0      8     6.03e-05   10.6949   
      8    0      9     2.22e-05   10.6959   
      9    1      10    9.00e-06   10.6961*  

     Davidson procedure converged

 EOMEE transition 1/A1
 Total energy = -74.55513903 a.u.  Excitation energy = 10.69611912 eV.
 R0^2 = 0.0064  R1^2 = 0.8678  R2^2 = 0.1322  Res^2 = 9.00e-06
 Conv-d = yes

 Amplitude    Transitions between orbitals
 -0.5902406159       3 (A1) A                  ->    4 (A1) A                   
 -0.5902406159       3 (A1) B                  ->    4 (A1) B                   
 -0.2839037566       1 (B1) A                  ->    2 (B1) A                   
 -0.2839037566       1 (B1) B                  ->    2 (B1) B                   
 -0.0701810759       2 (A1) A                  ->    4 (A1) A                   
 -0.0701810759       2 (A1) B                  ->    4 (A1) B                   
 -0.0004473024       1 (A1) A                  ->    4 (A1) A                   
 -0.0004473024       1 (A1) B                  ->    4 (A1) B                   
 -0.2004527521       1 (B1) A      1 (B1) B    ->    4 (A1) A      4 (A1) B     
  0.2004527521       1 (B1) A      1 (B1) B    ->    4 (A1) B      4 (A1) A     
  0.2004527521       1 (B1) B      1 (B1) A    ->    4 (A1) A      4 (A1) B     
 -0.2004527521       1 (B1) B      1 (B1) A    ->    4 (A1) B      4 (A1) A     
  0.1827260223       3 (A1) A      3 (A1) B    ->    4 (A1) A      4 (A1) B     
 -0.1827260223       3 (A1) A      3 (A1) B    ->    4 (A1) B      4 (A1) A     
 -0.1827260223       3 (A1) B      3 (A1) A    ->    4 (A1) A      4 (A1) B     
  0.1827260223       3 (A1) B      3 (A1) A    ->    4 (A1) B      4 (A1) A     
  0.1721869367       3 (A1) A      3 (A1) B    ->    2 (B1) A      2 (B1) B     
 -0.1721869367       3 (A1) A      3 (A1) B    ->    2 (B1) B      2 (B1) A     
 -0.1721869367       3 (A1) B      3 (A1) A    ->    2 (B1) A      2 (B1) B     
  0.1721869367       3 (A1) B      3 (A1) A    ->    2 (B1) B      2 (B1) A     
 -0.0655196096       3 (A1) A      1 (B1) B    ->    2 (B1) A      4 (A1) B     
  0.0655196096       3 (A1) A      1 (B1) B    ->    4 (A1) B      2 (B1) A     
 -0.0655196096       1 (B1) A      3 (A1) B    ->    4 (A1) A      2 (B1) B     
  0.0655196096       1 (B1) A      3 (A1) B    ->    2 (B1) B      4 (A1) A     
  0.0655196096       3 (A1) B      1 (B1) A    ->    4 (A1) A      2 (B1) B     
 -0.0655196096       3 (A1) B      1 (B1) A    ->    2 (B1) B      4 (A1) A     
  0.0655196096       1 (B1) B      3 (A1) A    ->    2 (B1) A      4 (A1) B     
 -0.0655196096       1 (B1) B      3 (A1) A    ->    4 (A1) B      2 (B1) A     
 -0.0461975999       3 (A1) A      1 (B1) B    ->    4 (A1) A      2 (B1) B     
  0.0461975999       3 (A1) A      1 (B1) B    ->    2 (B1) B      4 (A1) A     
 -0.0461975999       1 (B1) A      3 (A1) B    ->    2 (B1) A      4 (A1) B     
  0.0461975999       1 (B1) A      3 (A1) B    ->    4 (A1) B      2 (B1) A     
  0.0461975999       3 (A1) B      1 (B1) A    ->    2 (B1) A      4 (A1) B     
 -0.0461975999       3 (A1) B      1 (B1) A    ->    4 (A1) B      2 (B1) A     
  0.0461975999       1 (B1) B      3 (A1) A    ->    4 (A1) A      2 (B1) B     
 -0.0461975999       1 (B1) B      3 (A1) A    ->    2 (B1) B      4 (A1) A     
 -0.0422497519       1 (B2) A      1 (B2) B    ->    2 (B1) A      2 (B1) B     
  0.0422497519       1 (B2) A      1 (B2) B    ->    2 (B1) B      2 (B1) A     
  0.0422497519       1 (B2) B      1 (B2) A    ->    2 (B1) A      2 (B1) B     
 -0.0422497519       1 (B2) B      1 (B2) A    ->    2 (B1) B      2 (B1) A     
 -0.0414670466       2 (A1) A      1 (B1) B    ->    4 (A1) A      2 (B1) B     
  0.0414670466       2 (A1) A      1 (B1) B    ->    2 (B1) B      4 (A1) A     
 -0.0414670466       1 (B1) A      2 (A1) B    ->    2 (B1) A      4 (A1) B     
  0.0414670466       1 (B1) A      2 (A1) B    ->    4 (A1) B      2 (B1) A     
  0.0414670466       2 (A1) B      1 (B1) A    ->    2 (B1) A      4 (A1) B     
 -0.0414670466       2 (A1) B      1 (B1) A    ->    4 (A1) B      2 (B1) A     
  0.0414670466       1 (B1) B      2 (A1) A    ->    4 (A1) A      2 (B1) B     
 -0.0414670466       1 (B1) B      2 (A1) A    ->    2 (B1) B      4 (A1) A     
  0.0405802709       1 (B1) A      1 (B1) B    ->    2 (B1) A      2 (B1) B     
 -0.0405802709       1 (B1) A      1 (B1) B    ->    2 (B1) B      2 (B1) A     
 -0.0405802709       1 (B1) B      1 (B1) A    ->    2 (B1) A      2 (B1) B     
  0.0405802709       1 (B1) B      1 (B1) A    ->    2 (B1) B      2 (B1) A     
  0.0396558933       2 (A1) A      3 (A1) B    ->    4 (A1) A      4 (A1) B     
  0.0396558933       3 (A1) A      2 (A1) B    ->    4 (A1) A      4 (A1) B     
 -0.0396558933       2 (A1) A      3 (A1) B    ->    4 (A1) B      4 (A1) A     
 -0.0396558933       3 (A1) A      2 (A1) B    ->    4 (A1) B      4 (A1) A     
 -0.0396558933       3 (A1) B      2 (A1) A    ->    4 (A1) A      4 (A1) B     
 -0.0396558933       2 (A1) B      3 (A1) A    ->    4 (A1) A      4 (A1) B     
  0.0396558933       2 (A1) B      3 (A1) A    ->    4 (A1) B      4 (A1) A     
  0.0396558933       3 (A1) B      2 (A1) A    ->    4 (A1) B      4 (A1) A     
 -0.0358138561       2 (A1) A      2 (A1) B    ->    2 (B1) A      2 (B1) B     
  0.0358138561       2 (A1) A      2 (A1) B    ->    2 (B1) B      2 (B1) A     
  0.0358138561       2 (A1) B      2 (A1) A    ->    2 (B1) A      2 (B1) B     
 -0.0358138561       2 (A1) B      2 (A1) A    ->    2 (B1) B      2 (B1) A     
  0.0285667469       2 (A1) A      2 (A1) B    ->    4 (A1) A      4 (A1) B     
 -0.0285667469       2 (A1) A      2 (A1) B    ->    4 (A1) B      4 (A1) A     
 -0.0285667469       2 (A1) B      2 (A1) A    ->    4 (A1) A      4 (A1) B     
  0.0285667469       2 (A1) B      2 (A1) A    ->    4 (A1) B      4 (A1) A     
  0.0236668030       1 (B2) A      1 (B2) B    ->    4 (A1) A      4 (A1) B     
 -0.0236668030       1 (B2) A      1 (B2) B    ->    4 (A1) B      4 (A1) A     
 -0.0236668030       1 (B2) B      1 (B2) A    ->    4 (A1) A      4 (A1) B     
  0.0236668030       1 (B2) B      1 (B2) A    ->    4 (A1) B      4 (A1) A     
 -0.0228149482       2 (A1) A      1 (B1) A    ->    4 (A1) A      2 (B1) A     
  0.0228149482       2 (A1) A      1 (B1) A    ->    2 (B1) A      4 (A1) A     
  0.0228149482       1 (B1) A      2 (A1) A    ->    4 (A1) A      2 (B1) A     
 -0.0228149482       1 (B1) A      2 (A1) A    ->    2 (B1) A      4 (A1) A     
 -0.0228149482       2 (A1) B      1 (B1) B    ->    4 (A1) B      2 (B1) B     
  0.0228149482       2 (A1) B      1 (B1) B    ->    2 (B1) B      4 (A1) B     
  0.0228149482       1 (B1) B      2 (A1) B    ->    4 (A1) B      2 (B1) B     
 -0.0228149482       1 (B1) B      2 (A1) B    ->    2 (B1) B      4 (A1) B     
 -0.0212359182       2 (A1) A      3 (A1) B    ->    2 (B1) A      2 (B1) B     
 -0.0212359182       3 (A1) A      2 (A1) B    ->    2 (B1) A      2 (B1) B     
  0.0212359182       2 (A1) A      3 (A1) B    ->    2 (B1) B      2 (B1) A     
  0.0212359182       3 (A1) A      2 (A1) B    ->    2 (B1) B      2 (B1) A     
  0.0212359182       3 (A1) B      2 (A1) A    ->    2 (B1) A      2 (B1) B     
  0.0212359182       2 (A1) B      3 (A1) A    ->    2 (B1) A      2 (B1) B     
 -0.0212359182       2 (A1) B      3 (A1) A    ->    2 (B1) B      2 (B1) A     
 -0.0212359182       3 (A1) B      2 (A1) A    ->    2 (B1) B      2 (B1) A     
  0.0198598768       3 (A1) A      1 (B1) A    ->    4 (A1) A      2 (B1) A     
 -0.0198598768       3 (A1) A      1 (B1) A    ->    2 (B1) A      4 (A1) A     
 -0.0198598768       1 (B1) A      3 (A1) A    ->    4 (A1) A      2 (B1) A     
  0.0198598768       1 (B1) A      3 (A1) A    ->    2 (B1) A      4 (A1) A     
  0.0198598768       3 (A1) B      1 (B1) B    ->    4 (A1) B      2 (B1) B     
 -0.0198598768       3 (A1) B      1 (B1) B    ->    2 (B1) B      4 (A1) B     
 -0.0198598768       1 (B1) B      3 (A1) B    ->    4 (A1) B      2 (B1) B     
  0.0198598768       1 (B1) B      3 (A1) B    ->    2 (B1) B      4 (A1) B     
 -0.0186563637       2 (A1) A      1 (B1) B    ->    2 (B1) A      4 (A1) B     
  0.0186563637       2 (A1) A      1 (B1) B    ->    4 (A1) B      2 (B1) A     
 -0.0186563637       1 (B1) A      2 (A1) B    ->    4 (A1) A      2 (B1) B     
  0.0186563637       1 (B1) A      2 (A1) B    ->    2 (B1) B      4 (A1) A     
  0.0186563637       2 (A1) B      1 (B1) A    ->    4 (A1) A      2 (B1) B     
 -0.0186563637       2 (A1) B      1 (B1) A    ->    2 (B1) B      4 (A1) A     
  0.0186563637       1 (B1) B      2 (A1) A    ->    2 (B1) A      4 (A1) B     
 -0.0186563637       1 (B1) B      2 (A1) A    ->    4 (A1) B      2 (B1) A     
 -0.0010530404       1 (A1) A      2 (A1) B    ->    4 (A1) A      4 (A1) B     
 -0.0010530404       2 (A1) A      1 (A1) B    ->    4 (A1) A      4 (A1) B     
  0.0010530404       1 (A1) A      2 (A1) B    ->    4 (A1) B      4 (A1) A     
  0.0010530404       2 (A1) A      1 (A1) B    ->    4 (A1) B      4 (A1) A     
  0.0010530404       2 (A1) B      1 (A1) A    ->    4 (A1) A      4 (A1) B     
  0.0010530404       1 (A1) B      2 (A1) A    ->    4 (A1) A      4 (A1) B     
 -0.0010530404       1 (A1) B      2 (A1) A    ->    4 (A1) B      4 (A1) A     
 -0.0010530404       2 (A1) B      1 (A1) A    ->    4 (A1) B      4 (A1) A     
  0.0005261626       1 (A1) A      2 (A1) B    ->    2 (B1) A      2 (B1) B     
  0.0005261626       2 (A1) A      1 (A1) B    ->    2 (B1) A      2 (B1) B     
 -0.0005261626       1 (A1) A      2 (A1) B    ->    2 (B1) B      2 (B1) A     
 -0.0005261626       2 (A1) A      1 (A1) B    ->    2 (B1) B      2 (B1) A     
 -0.0005261626       2 (A1) B      1 (A1) A    ->    2 (B1) A      2 (B1) B     
 -0.0005261626       1 (A1) B      2 (A1) A    ->    2 (B1) A      2 (B1) B     
  0.0005261626       1 (A1) B      2 (A1) A    ->    2 (B1) B      2 (B1) A     
  0.0005261626       2 (A1) B      1 (A1) A    ->    2 (B1) B      2 (B1) A     
 -0.0002118256       1 (A1) A      3 (A1) B    ->    4 (A1) A      4 (A1) B     
 -0.0002118256       3 (A1) A      1 (A1) B    ->    4 (A1) A      4 (A1) B     
  0.0002118256       1 (A1) A      3 (A1) B    ->    4 (A1) B      4 (A1) A     
  0.0002118256       3 (A1) A      1 (A1) B    ->    4 (A1) B      4 (A1) A     
  0.0002118256       3 (A1) B      1 (A1) A    ->    4 (A1) A      4 (A1) B     
  0.0002118256       1 (A1) B      3 (A1) A    ->    4 (A1) A      4 (A1) B     
 -0.0002118256       1 (A1) B      3 (A1) A    ->    4 (A1) B      4 (A1) A     
 -0.0002118256       3 (A1) B      1 (A1) A    ->    4 (A1) B      4 (A1) A     
 -0.0001802013       1 (A1) A      1 (A1) B    ->    2 (B1) A      2 (B1) B     
  0.0001802013       1 (A1) A      1 (A1) B    ->    2 (B1) B      2 (B1) A     
  0.0001802013       1 (A1) B      1 (A1) A    ->    2 (B1) A      2 (B1) B     
 -0.0001802013       1 (A1) B      1 (A1) A    ->    2 (B1) B      2 (B1) A     
  0.0000870801       1 (A1) A      1 (A1) B    ->    4 (A1) A      4 (A1) B     
 -0.0000870801       1 (A1) A      1 (A1) B    ->    4 (A1) B      4 (A1) A     
 -0.0000870801       1 (A1) B      1 (A1) A    ->    4 (A1) A      4 (A1) B     
  0.0000870801       1 (A1) B      1 (A1) A    ->    4 (A1) B      4 (A1) A     
  0.0000533463       1 (A1) A      3 (A1) B    ->    2 (B1) A      2 (B1) B     
  0.0000533463       3 (A1) A      1 (A1) B    ->    2 (B1) A      2 (B1) B     
 -0.0000533463       1 (A1) A      3 (A1) B    ->    2 (B1) B      2 (B1) A     
 -0.0000533463       3 (A1) A      1 (A1) B    ->    2 (B1) B      2 (B1) A     
 -0.0000533463       3 (A1) B      1 (A1) A    ->    2 (B1) A      2 (B1) B     
 -0.0000533463       1 (A1) B      3 (A1) A    ->    2 (B1) A      2 (B1) B     
  0.0000533463       1 (A1) B      3 (A1) A    ->    2 (B1) B      2 (B1) A     
  0.0000533463       3 (A1) B      1 (A1) A    ->    2 (B1) B      2 (B1) A     
 -0.0000494147       1 (A1) A      1 (B1) B    ->    4 (A1) A      2 (B1) B     
  0.0000494147       1 (A1) A      1 (B1) B    ->    2 (B1) B      4 (A1) A     
 -0.0000494147       1 (B1) A      1 (A1) B    ->    2 (B1) A      4 (A1) B     
  0.0000494147       1 (B1) A      1 (A1) B    ->    4 (A1) B      2 (B1) A     
  0.0000494147       1 (A1) B      1 (B1) A    ->    2 (B1) A      4 (A1) B     
 -0.0000494147       1 (A1) B      1 (B1) A    ->    4 (A1) B      2 (B1) A     
  0.0000494147       1 (B1) B      1 (A1) A    ->    4 (A1) A      2 (B1) B     
 -0.0000494147       1 (B1) B      1 (A1) A    ->    2 (B1) B      4 (A1) A     
 -0.0000340698       1 (A1) A      1 (B1) B    ->    2 (B1) A      4 (A1) B     
  0.0000340698       1 (A1) A      1 (B1) B    ->    4 (A1) B      2 (B1) A     
 -0.0000340698       1 (B1) A      1 (A1) B    ->    4 (A1) A      2 (B1) B     
  0.0000340698       1 (B1) A      1 (A1) B    ->    2 (B1) B      4 (A1) A     
  0.0000340698       1 (A1) B      1 (B1) A    ->    4 (A1) A      2 (B1) B     
 -0.0000340698       1 (A1) B      1 (B1) A    ->    2 (B1) B      4 (A1) A     
  0.0000340698       1 (B1) B      1 (A1) A    ->    2 (B1) A      4 (A1) B     
 -0.0000340698       1 (B1) B      1 (A1) A    ->    4 (A1) B      2 (B1) A     
 -0.0000145314       1 (A1) A      1 (B1) A    ->    4 (A1) A      2 (B1) A     
  0.0000145314       1 (A1) A      1 (B1) A    ->    2 (B1) A      4 (A1) A     
  0.0000145314       1 (B1) A      1 (A1) A    ->    4 (A1) A      2 (B1) A     
 -0.0000145314       1 (B1) A      1 (A1) A    ->    2 (B1) A      4 (A1) A     
 -0.0000145314       1 (A1) B      1 (B1) B    ->    4 (A1) B      2 (B1) B     
  0.0000145314       1 (A1) B      1 (B1) B    ->    2 (B1) B      4 (A1) B     
  0.0000145314       1 (B1) B      1 (A1) B    ->    4 (A1) B      2 (B1) B     
 -0.0000145314       1 (B1) B      1 (A1) B    ->    2 (B1) B      4 (A1) B     

              Summary of significant orbitals:

               Number  Type             Irrep      Energy
               1       Occ  Alpha       1 (A1)    -20.2909
               2       Occ  Alpha       2 (A1)     -1.1635
               4       Occ  Alpha       3 (A1)     -0.4057
               3       Occ  Alpha       1 (B1)     -0.4695
               5       Occ  Alpha       1 (B2)     -0.3922
               1       Occ  Beta        1 (A1)    -20.2909
               2       Occ  Beta        2 (A1)     -1.1635
               4       Occ  Beta        3 (A1)     -0.4057
               3       Occ  Beta        1 (B1)     -0.4695
               5       Occ  Beta        1 (B2)     -0.3922
               6       Vir  Alpha       4 (A1)      0.3397
               7       Vir  Alpha       2 (B1)      0.4255
               6       Vir  Beta        4 (A1)      0.3397
               7       Vir  Beta        2 (B1)      0.4255


 EEs and amplitudes of EOMEE has be exported to fchk file
Running a double precision version
      EOM-CCSD/MP2 left amplitudes will be solved using Davidson.
        Amplitudes will be solved using MOM  algorithm.
     Hard-coded thresholds: 
     LinDepThresh=1.00e-15  NormThresh=1.00e-06  ReorthogonThresh=1.00e-02

      Roots     MaxVec    MaxIter   Precond   Conv      Shift    
      1         120       60        1         1.00e-05  0.00e+00  
 ------------------------------------------------------------------------------
      Iter ConvRoots NVecs ResNorm Current eigenvalues (eV)
 ------------------------------------------------------------------------------
      0    0      1     1.94e-03   10.6961   
      1    0      2     1.45e-02   10.6958   
      2    0      3     4.84e-04   10.6959   
      3    0      4     1.08e-04   10.6958   
      4    0      5     1.20e-04   10.6958   
      5    0      6     1.46e-05   10.6958   
      6    1      7     6.53e-06   10.6958*  

     Davidson procedure converged

 Excited state properties for  EOMEE-CCSD transition 1/A1
 Dipole moment (a.u.): 0.085472 (X 0.000000, Y 0.000000, Z -0.085472)
 R-squared (a.u.): 23.543920 (XX 11.321216, YY 4.665532, ZZ 7.557172)
 Gauge origin (a.u.): (0.000000, 0.000000, 0.000000)
 Angular momentum (a.u.) against gauge origin: 
 (X 0.000000i, Y 0.000000i, Z 0.000000i)
 Traces of the OPDMs: Tr(AA) 5.000000, Tr(BB) 5.000000

        Solving for EOMEE-CCSD A2 singlet states.

Running a double precision version
        EOMEE-CCSD/MP2 right amplitudes will be solved using Davidson.
        Amplitudes will be solved using standard  algorithm.
     Hard-coded thresholds: 
     LinDepThresh=1.00e-15  NormThresh=1.00e-06  ReorthogonThresh=1.00e-02

      Roots     MaxVec    MaxIter   Precond   Conv      Shift    
      1         120       60        1         1.00e-05  0.00e+00  
 ------------------------------------------------------------------------------
      Iter ConvRoots NVecs ResNorm Current eigenvalues (eV)
 ------------------------------------------------------------------------------
      0    0      1     5.34e-02   9.2669   
      1    0      2     2.59e-02   6.8823   
      2    0      3     8.16e-03   6.7765   
      3    0      4     1.08e-04   6.7704   
      4    1      5     1.44e-06   6.7702*  

     Davidson procedure converged

 EOMEE transition 1/A2
 Total energy = -74.69941285 a.u.  Excitation energy = 6.77022880 eV.
 R0^2 = 0.0000  R1^2 = 0.8566  R2^2 = 0.1434  Res^2 = 1.44e-06
 Conv-d = yes

 Amplitude    Transitions between orbitals
 -0.6544628749       1 (B2) A                  ->    2 (B1) A                   
 -0.6544628749       1 (B2) B                  ->    2 (B1) B                   
 -0.1478788895       1 (B1) A      1 (B2) B    ->    2 (B1) A      2 (B1) B     
  0.1478788895       1 (B1) A      1 (B2) B    ->    2 (B1) B      2 (B1) A     
 -0.1478788895       1 (B2) A      1 (B1) B    ->    2 (B1) A      2 (B1) B     
  0.1478788895       1 (B2) A      1 (B1) B    ->    2 (B1) B      2 (B1) A     
  0.1478788895       1 (B1) B      1 (B2) A    ->    2 (B1) A      2 (B1) B     
 -0.1478788895       1 (B1) B      1 (B2) A    ->    2 (B1) B      2 (B1) A     
  0.1478788895       1 (B2) B      1 (B1) A    ->    2 (B1) A      2 (B1) B     
 -0.1478788895       1 (B2) B      1 (B1) A    ->    2 (B1) B      2 (B1) A     
  0.1349561606       3 (A1) A      1 (B2) B    ->    4 (A1) A      2 (B1) B     
 -0.1349561606       3 (A1) A      1 (B2) B    ->    2 (B1) B      4 (A1) A     
  0.1349561606       1 (B2) A      3 (A1) B    ->    2 (B1) A      4 (A1) B     
 -0.1349561606       1 (B2) A      3 (A1) B    ->    4 (A1) B      2 (B1) A     
 -0.1349561606       3 (A1) B      1 (B2) A    ->    2 (B1) A      4 (A1) B     
  0.1349561606       3 (A1) B      1 (B2) A    ->    4 (A1) B      2 (B1) A     
 -0.1349561606       1 (B2) B      3 (A1) A    ->    4 (A1) A      2 (B1) B     
  0.1349561606       1 (B2) B      3 (A1) A    ->    2 (B1) B      4 (A1) A     
  0.1345507623       3 (A1) A      1 (B2) B    ->    2 (B1) A      4 (A1) B     
 -0.1345507623       3 (A1) A      1 (B2) B    ->    4 (A1) B      2 (B1) A     
  0.1345507623       1 (B2) A      3 (A1) B    ->    4 (A1) A      2 (B1) B     
 -0.1345507623       1 (B2) A      3 (A1) B    ->    2 (B1) B      4 (A1) A     
 -0.1345507623       3 (A1) B      1 (B2) A    ->    4 (A1) A      2 (B1) B     
  0.1345507623       3 (A1) B      1 (B2) A    ->    2 (B1) B      4 (A1) A     
 -0.1345507623       1 (B2) B      3 (A1) A    ->    2 (B1) A      4 (A1) B     
  0.1345507623       1 (B2) B      3 (A1) A    ->    4 (A1) B      2 (B1) A     
 -0.1037937135       1 (B1) A      1 (B2) B    ->    4 (A1) A      4 (A1) B     
  0.1037937135       1 (B1) A      1 (B2) B    ->    4 (A1) B      4 (A1) A     
 -0.1037937135       1 (B2) A      1 (B1) B    ->    4 (A1) A      4 (A1) B     
  0.1037937135       1 (B2) A      1 (B1) B    ->    4 (A1) B      4 (A1) A     
  0.1037937135       1 (B1) B      1 (B2) A    ->    4 (A1) A      4 (A1) B     
 -0.1037937135       1 (B1) B      1 (B2) A    ->    4 (A1) B      4 (A1) A     
  0.1037937135       1 (B2) B      1 (B1) A    ->    4 (A1) A      4 (A1) B     
 -0.1037937135       1 (B2) B      1 (B1) A    ->    4 (A1) B      4 (A1) A     
 -0.0382847692       2 (A1) A      1 (B2) B    ->    2 (B1) A      4 (A1) B     
  0.0382847692       2 (A1) A      1 (B2) B    ->    4 (A1) B      2 (B1) A     
 -0.0382847692       1 (B2) A      2 (A1) B    ->    4 (A1) A      2 (B1) B     
  0.0382847692       1 (B2) A      2 (A1) B    ->    2 (B1) B      4 (A1) A     
  0.0382847692       2 (A1) B      1 (B2) A    ->    4 (A1) A      2 (B1) B     
 -0.0382847692       2 (A1) B      1 (B2) A    ->    2 (B1) B      4 (A1) A     
  0.0382847692       1 (B2) B      2 (A1) A    ->    2 (B1) A      4 (A1) B     
 -0.0382847692       1 (B2) B      2 (A1) A    ->    4 (A1) B      2 (B1) A     
 -0.0352702532       2 (A1) A      1 (B2) B    ->    4 (A1) A      2 (B1) B     
  0.0352702532       2 (A1) A      1 (B2) B    ->    2 (B1) B      4 (A1) A     
 -0.0352702532       1 (B2) A      2 (A1) B    ->    2 (B1) A      4 (A1) B     
  0.0352702532       1 (B2) A      2 (A1) B    ->    4 (A1) B      2 (B1) A     
  0.0352702532       2 (A1) B      1 (B2) A    ->    2 (B1) A      4 (A1) B     
 -0.0352702532       2 (A1) B      1 (B2) A    ->    4 (A1) B      2 (B1) A     
  0.0352702532       1 (B2) B      2 (A1) A    ->    4 (A1) A      2 (B1) B     
 -0.0352702532       1 (B2) B      2 (A1) A    ->    2 (B1) B      4 (A1) A     
  0.0031775362       2 (A1) A      1 (B2) A    ->    4 (A1) A      2 (B1) A     
 -0.0031775362       2 (A1) A      1 (B2) A    ->    2 (B1) A      4 (A1) A     
 -0.0031775362       1 (B2) A      2 (A1) A    ->    4 (A1) A      2 (B1) A     
  0.0031775362       1 (B2) A      2 (A1) A    ->    2 (B1) A      4 (A1) A     
  0.0031775362       2 (A1) B      1 (B2) B    ->    4 (A1) B      2 (B1) B     
 -0.0031775362       2 (A1) B      1 (B2) B    ->    2 (B1) B      4 (A1) B     
 -0.0031775362       1 (B2) B      2 (A1) B    ->    4 (A1) B      2 (B1) B     
  0.0031775362       1 (B2) B      2 (A1) B    ->    2 (B1) B      4 (A1) B     
 -0.0002964229       3 (A1) A      1 (B2) A    ->    4 (A1) A      2 (B1) A     
  0.0002964229       3 (A1) A      1 (B2) A    ->    2 (B1) A      4 (A1) A     
  0.0002964229       1 (B2) A      3 (A1) A    ->    4 (A1) A      2 (B1) A     
 -0.0002964229       1 (B2) A      3 (A1) A    ->    2 (B1) A      4 (A1) A     
 -0.0002964229       3 (A1) B      1 (B2) B    ->    4 (A1) B      2 (B1) B     
  0.0002964229       3 (A1) B      1 (B2) B    ->    2 (B1) B      4 (A1) B     
  0.0002964229       1 (B2) B      3 (A1) B    ->    4 (A1) B      2 (B1) B     
 -0.0002964229       1 (B2) B      3 (A1) B    ->    2 (B1) B      4 (A1) B     
  0.0002244154       1 (A1) A      1 (B2) B    ->    2 (B1) A      4 (A1) B     
 -0.0002244154       1 (A1) A      1 (B2) B    ->    4 (A1) B      2 (B1) A     
  0.0002244154       1 (B2) A      1 (A1) B    ->    4 (A1) A      2 (B1) B     
 -0.0002244154       1 (B2) A      1 (A1) B    ->    2 (B1) B      4 (A1) A     
 -0.0002244154       1 (A1) B      1 (B2) A    ->    4 (A1) A      2 (B1) B     
  0.0002244154       1 (A1) B      1 (B2) A    ->    2 (B1) B      4 (A1) A     
 -0.0002244154       1 (B2) B      1 (A1) A    ->    2 (B1) A      4 (A1) B     
  0.0002244154       1 (B2) B      1 (A1) A    ->    4 (A1) B      2 (B1) A     
  0.0001064027       1 (A1) A      1 (B2) B    ->    4 (A1) A      2 (B1) B     
 -0.0001064027       1 (A1) A      1 (B2) B    ->    2 (B1) B      4 (A1) A     
  0.0001064027       1 (B2) A      1 (A1) B    ->    2 (B1) A      4 (A1) B     
 -0.0001064027       1 (B2) A      1 (A1) B    ->    4 (A1) B      2 (B1) A     
 -0.0001064027       1 (A1) B      1 (B2) A    ->    2 (B1) A      4 (A1) B     
  0.0001064027       1 (A1) B      1 (B2) A    ->    4 (A1) B      2 (B1) A     
 -0.0001064027       1 (B2) B      1 (A1) A    ->    4 (A1) A      2 (B1) B     
  0.0001064027       1 (B2) B      1 (A1) A    ->    2 (B1) B      4 (A1) A     
 -0.0001044474       1 (A1) A      1 (B2) A    ->    4 (A1) A      2 (B1) A     
  0.0001044474       1 (A1) A      1 (B2) A    ->    2 (B1) A      4 (A1) A     
  0.0001044474       1 (B2) A      1 (A1) A    ->    4 (A1) A      2 (B1) A     
 -0.0001044474       1 (B2) A      1 (A1) A    ->    2 (B1) A      4 (A1) A     
 -0.0001044474       1 (A1) B      1 (B2) B    ->    4 (A1) B      2 (B1) B     
  0.0001044474       1 (A1) B      1 (B2) B    ->    2 (B1) B      4 (A1) B     
  0.0001044474       1 (B2) B      1 (A1) B    ->    4 (A1) B      2 (B1) B     
 -0.0001044474       1 (B2) B      1 (A1) B    ->    2 (B1) B      4 (A1) B     

              Summary of significant orbitals:

               Number  Type             Irrep      Energy
               1       Occ  Alpha       1 (A1)    -20.2909
               2       Occ  Alpha       2 (A1)     -1.1635
               4       Occ  Alpha       3 (A1)     -0.4057
               3       Occ  Alpha       1 (B1)     -0.4695
               5       Occ  Alpha       1 (B2)     -0.3922
               1       Occ  Beta        1 (A1)    -20.2909
               2       Occ  Beta        2 (A1)     -1.1635
               4       Occ  Beta        3 (A1)     -0.4057
               3       Occ  Beta        1 (B1)     -0.4695
               5       Occ  Beta        1 (B2)     -0.3922
               6       Vir  Alpha       4 (A1)      0.3397
               7       Vir  Alpha       2 (B1)      0.4255
               6       Vir  Beta        4 (A1)      0.3397
               7       Vir  Beta        2 (B1)      0.4255


 EEs and amplitudes of EOMEE has be exported to fchk file
Running a double precision version
      EOM-CCSD/MP2 left amplitudes will be solved using Davidson.
        Amplitudes will be solved using MOM  algorithm.
     Hard-coded thresholds: 
     LinDepThresh=1.00e-15  NormThresh=1.00e-06  ReorthogonThresh=1.00e-02

      Roots     MaxVec    MaxIter   Precond   Conv      Shift    
      1         120       60        1         1.00e-05  0.00e+00  
 ------------------------------------------------------------------------------
      Iter ConvRoots NVecs ResNorm Current eigenvalues (eV)
 ------------------------------------------------------------------------------
      0    0      1     1.03e-03   6.7702   
      1    0      2     4.75e-04   6.7704   
      2    0      3     2.80e-04   6.7704   
      3    1      4     6.31e-06   6.7704*  

     Davidson procedure converged

 Excited state properties for  EOMEE-CCSD transition 1/A2
 Dipole moment (a.u.): 0.165574 (X 0.000000, Y 0.000000, Z -0.165574)
 R-squared (a.u.): 24.340361 (XX 12.108328, YY 4.103599, ZZ 8.128435)
 Gauge origin (a.u.): (0.000000, 0.000000, 0.000000)
 Angular momentum (a.u.) against gauge origin: 
 (X 0.000000i, Y 0.000000i, Z 0.000000i)
 Traces of the OPDMs: Tr(AA) 5.000000, Tr(BB) 5.000000

        Solving for EOMEE-CCSD B1 singlet states.

Running a double precision version
        EOMEE-CCSD/MP2 right amplitudes will be solved using Davidson.
        Amplitudes will be solved using standard  algorithm.
     Hard-coded thresholds: 
     LinDepThresh=1.00e-15  NormThresh=1.00e-06  ReorthogonThresh=1.00e-02

      Roots     MaxVec    MaxIter   Precond   Conv      Shift    
      1         120       60        1         1.00e-05  0.00e+00  
 ------------------------------------------------------------------------------
      Iter ConvRoots NVecs ResNorm Current eigenvalues (eV)
 ------------------------------------------------------------------------------
      0    0      1     3.74e-02   14.9926   
      1    0      2     2.60e-01   14.3559   
      2    0      3     2.42e-01   12.5179   
      3    0      4     1.03e-02   11.2489   
      4    0      5     1.36e-02   11.0982   
      5    0      6     4.95e-04   11.0781   
      6    0      7     1.48e-05   11.0763   
      7    1      8     2.38e-06   11.0763*  

     Davidson procedure converged

 EOMEE transition 1/B1
 Total energy = -74.54116700 a.u.  Excitation energy = 11.07631742 eV.
 R0^2 = 0.0000  R1^2 = 0.8462  R2^2 = 0.1538  Res^2 = 2.38e-06
 Conv-d = yes

 Amplitude    Transitions between orbitals
 -0.5058368602       3 (A1) A                  ->    2 (B1) A                   
 -0.5058368602       3 (A1) B                  ->    2 (B1) B                   
 -0.4087636939       1 (B1) A                  ->    4 (A1) A                   
 -0.4087636939       1 (B1) B                  ->    4 (A1) B                   
 -0.0117537787       2 (A1) A                  ->    2 (B1) A                   
 -0.0117537787       2 (A1) B                  ->    2 (B1) B                   
 -0.0005278594       1 (A1) A                  ->    2 (B1) A                   
 -0.0005278594       1 (A1) B                  ->    2 (B1) B                   
  0.1841455918       3 (A1) A      3 (A1) B    ->    4 (A1) A      2 (B1) B     
  0.1841455918       3 (A1) A      3 (A1) B    ->    2 (B1) A      4 (A1) B     
 -0.1841455918       3 (A1) A      3 (A1) B    ->    4 (A1) B      2 (B1) A     
 -0.1841455918       3 (A1) A      3 (A1) B    ->    2 (B1) B      4 (A1) A     
 -0.1841455918       3 (A1) B      3 (A1) A    ->    4 (A1) A      2 (B1) B     
 -0.1841455918       3 (A1) B      3 (A1) A    ->    2 (B1) A      4 (A1) B     
  0.1841455918       3 (A1) B      3 (A1) A    ->    4 (A1) B      2 (B1) A     
  0.1841455918       3 (A1) B      3 (A1) A    ->    2 (B1) B      4 (A1) A     
 -0.1447516061       3 (A1) A      1 (B1) B    ->    4 (A1) A      4 (A1) B     
  0.1447516061       3 (A1) A      1 (B1) B    ->    4 (A1) B      4 (A1) A     
 -0.1447516061       1 (B1) A      3 (A1) B    ->    4 (A1) A      4 (A1) B     
  0.1447516061       1 (B1) A      3 (A1) B    ->    4 (A1) B      4 (A1) A     
  0.1447516061       3 (A1) B      1 (B1) A    ->    4 (A1) A      4 (A1) B     
 -0.1447516061       3 (A1) B      1 (B1) A    ->    4 (A1) B      4 (A1) A     
  0.1447516061       1 (B1) B      3 (A1) A    ->    4 (A1) A      4 (A1) B     
 -0.1447516061       1 (B1) B      3 (A1) A    ->    4 (A1) B      4 (A1) A     
 -0.1167200725       1 (B1) A      1 (B1) B    ->    4 (A1) A      2 (B1) B     
 -0.1167200725       1 (B1) A      1 (B1) B    ->    2 (B1) A      4 (A1) B     
  0.1167200725       1 (B1) A      1 (B1) B    ->    4 (A1) B      2 (B1) A     
  0.1167200725       1 (B1) A      1 (B1) B    ->    2 (B1) B      4 (A1) A     
  0.1167200725       1 (B1) B      1 (B1) A    ->    4 (A1) A      2 (B1) B     
  0.1167200725       1 (B1) B      1 (B1) A    ->    2 (B1) A      4 (A1) B     
 -0.1167200725       1 (B1) B      1 (B1) A    ->    4 (A1) B      2 (B1) A     
 -0.1167200725       1 (B1) B      1 (B1) A    ->    2 (B1) B      4 (A1) A     
  0.0759916255       3 (A1) A      1 (B1) B    ->    2 (B1) A      2 (B1) B     
 -0.0759916255       3 (A1) A      1 (B1) B    ->    2 (B1) B      2 (B1) A     
  0.0759916255       1 (B1) A      3 (A1) B    ->    2 (B1) A      2 (B1) B     
 -0.0759916255       1 (B1) A      3 (A1) B    ->    2 (B1) B      2 (B1) A     
 -0.0759916255       3 (A1) B      1 (B1) A    ->    2 (B1) A      2 (B1) B     
  0.0759916255       3 (A1) B      1 (B1) A    ->    2 (B1) B      2 (B1) A     
 -0.0759916255       1 (B1) B      3 (A1) A    ->    2 (B1) A      2 (B1) B     
  0.0759916255       1 (B1) B      3 (A1) A    ->    2 (B1) B      2 (B1) A     
 -0.0410629441       2 (A1) A      1 (B1) B    ->    2 (B1) A      2 (B1) B     
  0.0410629441       2 (A1) A      1 (B1) B    ->    2 (B1) B      2 (B1) A     
 -0.0410629441       1 (B1) A      2 (A1) B    ->    2 (B1) A      2 (B1) B     
  0.0410629441       1 (B1) A      2 (A1) B    ->    2 (B1) B      2 (B1) A     
  0.0410629441       2 (A1) B      1 (B1) A    ->    2 (B1) A      2 (B1) B     
 -0.0410629441       2 (A1) B      1 (B1) A    ->    2 (B1) B      2 (B1) A     
  0.0410629441       1 (B1) B      2 (A1) A    ->    2 (B1) A      2 (B1) B     
 -0.0410629441       1 (B1) B      2 (A1) A    ->    2 (B1) B      2 (B1) A     
 -0.0183987966       2 (A1) A      3 (A1) B    ->    4 (A1) A      2 (B1) B     
 -0.0183987966       3 (A1) A      2 (A1) B    ->    2 (B1) A      4 (A1) B     
  0.0183987966       3 (A1) A      2 (A1) B    ->    4 (A1) B      2 (B1) A     
  0.0183987966       2 (A1) A      3 (A1) B    ->    2 (B1) B      4 (A1) A     
  0.0183987966       3 (A1) B      2 (A1) A    ->    4 (A1) A      2 (B1) B     
  0.0183987966       2 (A1) B      3 (A1) A    ->    2 (B1) A      4 (A1) B     
 -0.0183987966       2 (A1) B      3 (A1) A    ->    4 (A1) B      2 (B1) A     
 -0.0183987966       3 (A1) B      2 (A1) A    ->    2 (B1) B      4 (A1) A     
  0.0160582507       2 (A1) A      1 (B1) B    ->    4 (A1) A      4 (A1) B     
 -0.0160582507       2 (A1) A      1 (B1) B    ->    4 (A1) B      4 (A1) A     
  0.0160582507       1 (B1) A      2 (A1) B    ->    4 (A1) A      4 (A1) B     
 -0.0160582507       1 (B1) A      2 (A1) B    ->    4 (A1) B      4 (A1) A     
 -0.0160582507       2 (A1) B      1 (B1) A    ->    4 (A1) A      4 (A1) B     
  0.0160582507       2 (A1) B      1 (B1) A    ->    4 (A1) B      4 (A1) A     
 -0.0160582507       1 (B1) B      2 (A1) A    ->    4 (A1) A      4 (A1) B     
  0.0160582507       1 (B1) B      2 (A1) A    ->    4 (A1) B      4 (A1) A     
 -0.0146497718       2 (A1) A      3 (A1) A    ->    4 (A1) A      2 (B1) A     
  0.0146497718       3 (A1) A      2 (A1) A    ->    4 (A1) A      2 (B1) A     
  0.0146497718       2 (A1) A      3 (A1) A    ->    2 (B1) A      4 (A1) A     
 -0.0146497718       3 (A1) A      2 (A1) A    ->    2 (B1) A      4 (A1) A     
 -0.0146497718       2 (A1) B      3 (A1) B    ->    4 (A1) B      2 (B1) B     
  0.0146497718       3 (A1) B      2 (A1) B    ->    4 (A1) B      2 (B1) B     
  0.0146497718       2 (A1) B      3 (A1) B    ->    2 (B1) B      4 (A1) B     
 -0.0146497718       3 (A1) B      2 (A1) B    ->    2 (B1) B      4 (A1) B     
 -0.0105746801       1 (B2) A      1 (B2) B    ->    4 (A1) A      2 (B1) B     
 -0.0105746801       1 (B2) A      1 (B2) B    ->    2 (B1) A      4 (A1) B     
  0.0105746801       1 (B2) A      1 (B2) B    ->    4 (A1) B      2 (B1) A     
  0.0105746801       1 (B2) A      1 (B2) B    ->    2 (B1) B      4 (A1) A     
  0.0105746801       1 (B2) B      1 (B2) A    ->    4 (A1) A      2 (B1) B     
  0.0105746801       1 (B2) B      1 (B2) A    ->    2 (B1) A      4 (A1) B     
 -0.0105746801       1 (B2) B      1 (B2) A    ->    4 (A1) B      2 (B1) A     
 -0.0105746801       1 (B2) B      1 (B2) A    ->    2 (B1) B      4 (A1) A     
 -0.0043786481       2 (A1) A      2 (A1) B    ->    4 (A1) A      2 (B1) B     
 -0.0043786481       2 (A1) A      2 (A1) B    ->    2 (B1) A      4 (A1) B     
  0.0043786481       2 (A1) A      2 (A1) B    ->    4 (A1) B      2 (B1) A     
  0.0043786481       2 (A1) A      2 (A1) B    ->    2 (B1) B      4 (A1) A     
  0.0043786481       2 (A1) B      2 (A1) A    ->    4 (A1) A      2 (B1) B     
  0.0043786481       2 (A1) B      2 (A1) A    ->    2 (B1) A      4 (A1) B     
 -0.0043786481       2 (A1) B      2 (A1) A    ->    4 (A1) B      2 (B1) A     
 -0.0043786481       2 (A1) B      2 (A1) A    ->    2 (B1) B      4 (A1) A     
 -0.0036991968       3 (A1) A      2 (A1) B    ->    4 (A1) A      2 (B1) B     
 -0.0036991968       2 (A1) A      3 (A1) B    ->    2 (B1) A      4 (A1) B     
  0.0036991968       2 (A1) A      3 (A1) B    ->    4 (A1) B      2 (B1) A     
  0.0036991968       3 (A1) A      2 (A1) B    ->    2 (B1) B      4 (A1) A     
  0.0036991968       2 (A1) B      3 (A1) A    ->    4 (A1) A      2 (B1) B     
  0.0036991968       3 (A1) B      2 (A1) A    ->    2 (B1) A      4 (A1) B     
 -0.0036991968       3 (A1) B      2 (A1) A    ->    4 (A1) B      2 (B1) A     
 -0.0036991968       2 (A1) B      3 (A1) A    ->    2 (B1) B      4 (A1) A     
 -0.0001881917       1 (A1) A      1 (B1) B    ->    4 (A1) A      4 (A1) B     
  0.0001881917       1 (A1) A      1 (B1) B    ->    4 (A1) B      4 (A1) A     
 -0.0001881917       1 (B1) A      1 (A1) B    ->    4 (A1) A      4 (A1) B     
  0.0001881917       1 (B1) A      1 (A1) B    ->    4 (A1) B      4 (A1) A     
  0.0001881917       1 (A1) B      1 (B1) A    ->    4 (A1) A      4 (A1) B     
 -0.0001881917       1 (A1) B      1 (B1) A    ->    4 (A1) B      4 (A1) A     
  0.0001881917       1 (B1) B      1 (A1) A    ->    4 (A1) A      4 (A1) B     
 -0.0001881917       1 (B1) B      1 (A1) A    ->    4 (A1) B      4 (A1) A     
 -0.0001483818       1 (A1) A      2 (A1) B    ->    4 (A1) A      2 (B1) B     
 -0.0001483818       2 (A1) A      1 (A1) B    ->    2 (B1) A      4 (A1) B     
  0.0001483818       2 (A1) A      1 (A1) B    ->    4 (A1) B      2 (B1) A     
  0.0001483818       1 (A1) A      2 (A1) B    ->    2 (B1) B      4 (A1) A     
  0.0001483818       2 (A1) B      1 (A1) A    ->    4 (A1) A      2 (B1) B     
  0.0001483818       1 (A1) B      2 (A1) A    ->    2 (B1) A      4 (A1) B     
 -0.0001483818       1 (A1) B      2 (A1) A    ->    4 (A1) B      2 (B1) A     
 -0.0001483818       2 (A1) B      1 (A1) A    ->    2 (B1) B      4 (A1) A     
 -0.0001325100       1 (A1) A      2 (A1) A    ->    4 (A1) A      2 (B1) A     
  0.0001325100       2 (A1) A      1 (A1) A    ->    4 (A1) A      2 (B1) A     
  0.0001325100       1 (A1) A      2 (A1) A    ->    2 (B1) A      4 (A1) A     
 -0.0001325100       2 (A1) A      1 (A1) A    ->    2 (B1) A      4 (A1) A     
 -0.0001325100       1 (A1) B      2 (A1) B    ->    4 (A1) B      2 (B1) B     
  0.0001325100       2 (A1) B      1 (A1) B    ->    4 (A1) B      2 (B1) B     
  0.0001325100       1 (A1) B      2 (A1) B    ->    2 (B1) B      4 (A1) B     
 -0.0001325100       2 (A1) B      1 (A1) B    ->    2 (B1) B      4 (A1) B     
  0.0001100526       3 (A1) A      1 (A1) B    ->    4 (A1) A      2 (B1) B     
  0.0001100526       1 (A1) A      3 (A1) B    ->    2 (B1) A      4 (A1) B     
 -0.0001100526       1 (A1) A      3 (A1) B    ->    4 (A1) B      2 (B1) A     
 -0.0001100526       3 (A1) A      1 (A1) B    ->    2 (B1) B      4 (A1) A     
 -0.0001100526       1 (A1) B      3 (A1) A    ->    4 (A1) A      2 (B1) B     
 -0.0001100526       3 (A1) B      1 (A1) A    ->    2 (B1) A      4 (A1) B     
  0.0001100526       3 (A1) B      1 (A1) A    ->    4 (A1) B      2 (B1) A     
  0.0001100526       1 (A1) B      3 (A1) A    ->    2 (B1) B      4 (A1) A     
 -0.0000880294       1 (A1) A      1 (B1) B    ->    2 (B1) A      2 (B1) B     
  0.0000880294       1 (A1) A      1 (B1) B    ->    2 (B1) B      2 (B1) A     
 -0.0000880294       1 (B1) A      1 (A1) B    ->    2 (B1) A      2 (B1) B     
  0.0000880294       1 (B1) A      1 (A1) B    ->    2 (B1) B      2 (B1) A     
  0.0000880294       1 (A1) B      1 (B1) A    ->    2 (B1) A      2 (B1) B     
 -0.0000880294       1 (A1) B      1 (B1) A    ->    2 (B1) B      2 (B1) A     
  0.0000880294       1 (B1) B      1 (A1) A    ->    2 (B1) A      2 (B1) B     
 -0.0000880294       1 (B1) B      1 (A1) A    ->    2 (B1) B      2 (B1) A     
  0.0000852546       1 (A1) A      3 (A1) B    ->    4 (A1) A      2 (B1) B     
  0.0000852546       3 (A1) A      1 (A1) B    ->    2 (B1) A      4 (A1) B     
 -0.0000852546       3 (A1) A      1 (A1) B    ->    4 (A1) B      2 (B1) A     
 -0.0000852546       1 (A1) A      3 (A1) B    ->    2 (B1) B      4 (A1) A     
 -0.0000852546       3 (A1) B      1 (A1) A    ->    4 (A1) A      2 (B1) B     
 -0.0000852546       1 (A1) B      3 (A1) A    ->    2 (B1) A      4 (A1) B     
  0.0000852546       1 (A1) B      3 (A1) A    ->    4 (A1) B      2 (B1) A     
  0.0000852546       3 (A1) B      1 (A1) A    ->    2 (B1) B      4 (A1) A     
 -0.0000821248       1 (A1) A      1 (A1) B    ->    4 (A1) A      2 (B1) B     
 -0.0000821248       1 (A1) A      1 (A1) B    ->    2 (B1) A      4 (A1) B     
  0.0000821248       1 (A1) A      1 (A1) B    ->    4 (A1) B      2 (B1) A     
  0.0000821248       1 (A1) A      1 (A1) B    ->    2 (B1) B      4 (A1) A     
  0.0000821248       1 (A1) B      1 (A1) A    ->    4 (A1) A      2 (B1) B     
  0.0000821248       1 (A1) B      1 (A1) A    ->    2 (B1) A      4 (A1) B     
 -0.0000821248       1 (A1) B      1 (A1) A    ->    4 (A1) B      2 (B1) A     
 -0.0000821248       1 (A1) B      1 (A1) A    ->    2 (B1) B      4 (A1) A     
 -0.0000271931       1 (A1) A      3 (A1) A    ->    4 (A1) A      2 (B1) A     
  0.0000271931       3 (A1) A      1 (A1) A    ->    4 (A1) A      2 (B1) A     
  0.0000271931       1 (A1) A      3 (A1) A    ->    2 (B1) A      4 (A1) A     
 -0.0000271931       3 (A1) A      1 (A1) A    ->    2 (B1) A      4 (A1) A     
 -0.0000271931       1 (A1) B      3 (A1) B    ->    4 (A1) B      2 (B1) B     
  0.0000271931       3 (A1) B      1 (A1) B    ->    4 (A1) B      2 (B1) B     
  0.0000271931       1 (A1) B      3 (A1) B    ->    2 (B1) B      4 (A1) B     
 -0.0000271931       3 (A1) B      1 (A1) B    ->    2 (B1) B      4 (A1) B     
 -0.0000124323       2 (A1) A      1 (A1) B    ->    4 (A1) A      2 (B1) B     
 -0.0000124323       1 (A1) A      2 (A1) B    ->    2 (B1) A      4 (A1) B     
  0.0000124323       1 (A1) A      2 (A1) B    ->    4 (A1) B      2 (B1) A     
  0.0000124323       2 (A1) A      1 (A1) B    ->    2 (B1) B      4 (A1) A     
  0.0000124323       1 (A1) B      2 (A1) A    ->    4 (A1) A      2 (B1) B     
  0.0000124323       2 (A1) B      1 (A1) A    ->    2 (B1) A      4 (A1) B     
 -0.0000124323       2 (A1) B      1 (A1) A    ->    4 (A1) B      2 (B1) A     
 -0.0000124323       1 (A1) B      2 (A1) A    ->    2 (B1) B      4 (A1) A     

              Summary of significant orbitals:

               Number  Type             Irrep      Energy
               1       Occ  Alpha       1 (A1)    -20.2909
               2       Occ  Alpha       2 (A1)     -1.1635
               4       Occ  Alpha       3 (A1)     -0.4057
               3       Occ  Alpha       1 (B1)     -0.4695
               5       Occ  Alpha       1 (B2)     -0.3922
               1       Occ  Beta        1 (A1)    -20.2909
               2       Occ  Beta        2 (A1)     -1.1635
               4       Occ  Beta        3 (A1)     -0.4057
               3       Occ  Beta        1 (B1)     -0.4695
               5       Occ  Beta        1 (B2)     -0.3922
               6       Vir  Alpha       4 (A1)      0.3397
               7       Vir  Alpha       2 (B1)      0.4255
               6       Vir  Beta        4 (A1)      0.3397
               7       Vir  Beta        2 (B1)      0.4255


 EEs and amplitudes of EOMEE has be exported to fchk file
Running a double precision version
      EOM-CCSD/MP2 left amplitudes will be solved using Davidson.
        Amplitudes will be solved using MOM  algorithm.
     Hard-coded thresholds: 
     LinDepThresh=1.00e-15  NormThresh=1.00e-06  ReorthogonThresh=1.00e-02

      Roots     MaxVec    MaxIter   Precond   Conv      Shift    
      1         120       60        1         1.00e-05  0.00e+00  
 ------------------------------------------------------------------------------
      Iter ConvRoots NVecs ResNorm Current eigenvalues (eV)
 ------------------------------------------------------------------------------
      0    0      1     1.00e-03   11.0763   
      1    0      2     2.87e-03   11.0762   
      2    0      3     1.44e-04   11.0762   
      3    1      4     6.21e-06   11.0762*  

     Davidson procedure converged

 Excited state properties for  EOMEE-CCSD transition 1/B1
 Dipole moment (a.u.): 0.127111 (X 0.000000, Y 0.000000, Z -0.127111)
 R-squared (a.u.): 23.885229 (XX 11.548534, YY 4.672183, ZZ 7.664512)
 Gauge origin (a.u.): (0.000000, 0.000000, 0.000000)
 Angular momentum (a.u.) against gauge origin: 
 (X 0.000000i, Y 0.000000i, Z 0.000000i)
 Traces of the OPDMs: Tr(AA) 5.000000, Tr(BB) 5.000000

        Solving for EOMEE-CCSD B2 singlet states.

Running a double precision version
        EOMEE-CCSD/MP2 right amplitudes will be solved using Davidson.
        Amplitudes will be solved using standard  algorithm.
     Hard-coded thresholds: 
     LinDepThresh=1.00e-15  NormThresh=1.00e-06  ReorthogonThresh=1.00e-02

      Roots     MaxVec    MaxIter   Precond   Conv      Shift    
      1         120       60        1         1.00e-05  0.00e+00  
 ------------------------------------------------------------------------------
      Iter ConvRoots NVecs ResNorm Current eigenvalues (eV)
 ------------------------------------------------------------------------------
      0    0      1     6.26e-02   7.9332   
      1    0      2     5.17e-02   5.3799   
      2    0      3     8.25e-03   5.2308   
      3    0      4     1.68e-04   5.2180   
      4    0      5     2.46e-05   5.2176   
      5    0      6     1.78e-05   5.2159   
      6    1      7     1.30e-07   5.2156*  

     Davidson procedure converged

 EOMEE transition 1/B2
 Total energy = -74.75654468 a.u.  Excitation energy = 5.21559245 eV.
 R0^2 = 0.0000  R1^2 = 0.8568  R2^2 = 0.1432  Res^2 = 1.30e-07
 Conv-d = yes

 Amplitude    Transitions between orbitals
  0.6545080314       1 (B2) A                  ->    4 (A1) A                   
  0.6545080314       1 (B2) B                  ->    4 (A1) B                   
 -0.1642206257       3 (A1) A      1 (B2) B    ->    4 (A1) A      4 (A1) B     
  0.1642206257       3 (A1) A      1 (B2) B    ->    4 (A1) B      4 (A1) A     
 -0.1642206257       1 (B2) A      3 (A1) B    ->    4 (A1) A      4 (A1) B     
  0.1642206257       1 (B2) A      3 (A1) B    ->    4 (A1) B      4 (A1) A     
  0.1642206257       3 (A1) B      1 (B2) A    ->    4 (A1) A      4 (A1) B     
 -0.1642206257       3 (A1) B      1 (B2) A    ->    4 (A1) B      4 (A1) A     
  0.1642206257       1 (B2) B      3 (A1) A    ->    4 (A1) A      4 (A1) B     
 -0.1642206257       1 (B2) B      3 (A1) A    ->    4 (A1) B      4 (A1) A     
  0.1362698094       1 (B1) A      1 (B2) B    ->    2 (B1) A      4 (A1) B     
 -0.1362698094       1 (B1) A      1 (B2) B    ->    4 (A1) B      2 (B1) A     
  0.1362698094       1 (B2) A      1 (B1) B    ->    4 (A1) A      2 (B1) B     
 -0.1362698094       1 (B2) A      1 (B1) B    ->    2 (B1) B      4 (A1) A     
 -0.1362698094       1 (B1) B      1 (B2) A    ->    4 (A1) A      2 (B1) B     
  0.1362698094       1 (B1) B      1 (B2) A    ->    2 (B1) B      4 (A1) A     
 -0.1362698094       1 (B2) B      1 (B1) A    ->    2 (B1) A      4 (A1) B     
  0.1362698094       1 (B2) B      1 (B1) A    ->    4 (A1) B      2 (B1) A     
  0.1318514341       1 (B1) A      1 (B2) B    ->    4 (A1) A      2 (B1) B     
 -0.1318514341       1 (B1) A      1 (B2) B    ->    2 (B1) B      4 (A1) A     
  0.1318514341       1 (B2) A      1 (B1) B    ->    2 (B1) A      4 (A1) B     
 -0.1318514341       1 (B2) A      1 (B1) B    ->    4 (A1) B      2 (B1) A     
 -0.1318514341       1 (B1) B      1 (B2) A    ->    2 (B1) A      4 (A1) B     
  0.1318514341       1 (B1) B      1 (B2) A    ->    4 (A1) B      2 (B1) A     
 -0.1318514341       1 (B2) B      1 (B1) A    ->    4 (A1) A      2 (B1) B     
  0.1318514341       1 (B2) B      1 (B1) A    ->    2 (B1) B      4 (A1) A     
 -0.0777166922       3 (A1) A      1 (B2) B    ->    2 (B1) A      2 (B1) B     
  0.0777166922       3 (A1) A      1 (B2) B    ->    2 (B1) B      2 (B1) A     
 -0.0777166922       1 (B2) A      3 (A1) B    ->    2 (B1) A      2 (B1) B     
  0.0777166922       1 (B2) A      3 (A1) B    ->    2 (B1) B      2 (B1) A     
  0.0777166922       3 (A1) B      1 (B2) A    ->    2 (B1) A      2 (B1) B     
 -0.0777166922       3 (A1) B      1 (B2) A    ->    2 (B1) B      2 (B1) A     
  0.0777166922       1 (B2) B      3 (A1) A    ->    2 (B1) A      2 (B1) B     
 -0.0777166922       1 (B2) B      3 (A1) A    ->    2 (B1) B      2 (B1) A     
  0.0506982746       2 (A1) A      1 (B2) B    ->    4 (A1) A      4 (A1) B     
 -0.0506982746       2 (A1) A      1 (B2) B    ->    4 (A1) B      4 (A1) A     
  0.0506982746       1 (B2) A      2 (A1) B    ->    4 (A1) A      4 (A1) B     
 -0.0506982746       1 (B2) A      2 (A1) B    ->    4 (A1) B      4 (A1) A     
 -0.0506982746       2 (A1) B      1 (B2) A    ->    4 (A1) A      4 (A1) B     
  0.0506982746       2 (A1) B      1 (B2) A    ->    4 (A1) B      4 (A1) A     
 -0.0506982746       1 (B2) B      2 (A1) A    ->    4 (A1) A      4 (A1) B     
  0.0506982746       1 (B2) B      2 (A1) A    ->    4 (A1) B      4 (A1) A     
  0.0082919844       2 (A1) A      1 (B2) B    ->    2 (B1) A      2 (B1) B     
 -0.0082919844       2 (A1) A      1 (B2) B    ->    2 (B1) B      2 (B1) A     
  0.0082919844       1 (B2) A      2 (A1) B    ->    2 (B1) A      2 (B1) B     
 -0.0082919844       1 (B2) A      2 (A1) B    ->    2 (B1) B      2 (B1) A     
 -0.0082919844       2 (A1) B      1 (B2) A    ->    2 (B1) A      2 (B1) B     
  0.0082919844       2 (A1) B      1 (B2) A    ->    2 (B1) B      2 (B1) A     
 -0.0082919844       1 (B2) B      2 (A1) A    ->    2 (B1) A      2 (B1) B     
  0.0082919844       1 (B2) B      2 (A1) A    ->    2 (B1) B      2 (B1) A     
 -0.0041883911       1 (B1) A      1 (B2) A    ->    4 (A1) A      2 (B1) A     
  0.0041883911       1 (B1) A      1 (B2) A    ->    2 (B1) A      4 (A1) A     
  0.0041883911       1 (B2) A      1 (B1) A    ->    4 (A1) A      2 (B1) A     
 -0.0041883911       1 (B2) A      1 (B1) A    ->    2 (B1) A      4 (A1) A     
 -0.0041883911       1 (B1) B      1 (B2) B    ->    4 (A1) B      2 (B1) B     
  0.0041883911       1 (B1) B      1 (B2) B    ->    2 (B1) B      4 (A1) B     
  0.0041883911       1 (B2) B      1 (B1) B    ->    4 (A1) B      2 (B1) B     
 -0.0041883911       1 (B2) B      1 (B1) B    ->    2 (B1) B      4 (A1) B     
 -0.0002156791       1 (A1) A      1 (B2) B    ->    4 (A1) A      4 (A1) B     
  0.0002156791       1 (A1) A      1 (B2) B    ->    4 (A1) B      4 (A1) A     
 -0.0002156791       1 (B2) A      1 (A1) B    ->    4 (A1) A      4 (A1) B     
  0.0002156791       1 (B2) A      1 (A1) B    ->    4 (A1) B      4 (A1) A     
  0.0002156791       1 (A1) B      1 (B2) A    ->    4 (A1) A      4 (A1) B     
 -0.0002156791       1 (A1) B      1 (B2) A    ->    4 (A1) B      4 (A1) A     
  0.0002156791       1 (B2) B      1 (A1) A    ->    4 (A1) A      4 (A1) B     
 -0.0002156791       1 (B2) B      1 (A1) A    ->    4 (A1) B      4 (A1) A     
  0.0001261511       1 (A1) A      1 (B2) B    ->    2 (B1) A      2 (B1) B     
 -0.0001261511       1 (A1) A      1 (B2) B    ->    2 (B1) B      2 (B1) A     
  0.0001261511       1 (B2) A      1 (A1) B    ->    2 (B1) A      2 (B1) B     
 -0.0001261511       1 (B2) A      1 (A1) B    ->    2 (B1) B      2 (B1) A     
 -0.0001261511       1 (A1) B      1 (B2) A    ->    2 (B1) A      2 (B1) B     
  0.0001261511       1 (A1) B      1 (B2) A    ->    2 (B1) B      2 (B1) A     
 -0.0001261511       1 (B2) B      1 (A1) A    ->    2 (B1) A      2 (B1) B     
  0.0001261511       1 (B2) B      1 (A1) A    ->    2 (B1) B      2 (B1) A     

              Summary of significant orbitals:

               Number  Type             Irrep      Energy
               1       Occ  Alpha       1 (A1)    -20.2909
               2       Occ  Alpha       2 (A1)     -1.1635
               4       Occ  Alpha       3 (A1)     -0.4057
               3       Occ  Alpha       1 (B1)     -0.4695
               5       Occ  Alpha       1 (B2)     -0.3922
               1       Occ  Beta        1 (A1)    -20.2909
               2       Occ  Beta        2 (A1)     -1.1635
               4       Occ  Beta        3 (A1)     -0.4057
               3       Occ  Beta        1 (B1)     -0.4695
               5       Occ  Beta        1 (B2)     -0.3922
               6       Vir  Alpha       4 (A1)      0.3397
               7       Vir  Alpha       2 (B1)      0.4255
               6       Vir  Beta        4 (A1)      0.3397
               7       Vir  Beta        2 (B1)      0.4255


 EEs and amplitudes of EOMEE has be exported to fchk file
Running a double precision version
      EOM-CCSD/MP2 left amplitudes will be solved using Davidson.
        Amplitudes will be solved using MOM  algorithm.
     Hard-coded thresholds: 
     LinDepThresh=1.00e-15  NormThresh=1.00e-06  ReorthogonThresh=1.00e-02

      Roots     MaxVec    MaxIter   Precond   Conv      Shift    
      1         120       60        1         1.00e-05  0.00e+00  
 ------------------------------------------------------------------------------
      Iter ConvRoots NVecs ResNorm Current eigenvalues (eV)
 ------------------------------------------------------------------------------
      0    0      1     1.49e-03   5.2156   
      1    0      2     2.34e-04   5.2155   
      2    0      3     7.19e-05   5.2155   
      3    0      4     1.88e-05   5.2155   
      4    1      5     5.95e-07   5.2155*  

     Davidson procedure converged

 Excited state properties for  EOMEE-CCSD transition 1/B2
 Dipole moment (a.u.): 0.010774 (X 0.000000, Y 0.000000, Z -0.010774)
 R-squared (a.u.): 24.411410 (XX 11.965216, YY 4.161095, ZZ 8.285100)
 Gauge origin (a.u.): (0.000000, 0.000000, 0.000000)
 Angular momentum (a.u.) against gauge origin: 
 (X 0.000000i, Y 0.000000i, Z 0.000000i)
 Traces of the OPDMs: Tr(AA) 5.000000, Tr(BB) 5.000000

        Solving for EOMEE-CCSD A1 triplet states.

Running a double precision version
        EOMEE-CCSD/MP2 right amplitudes will be solved using Davidson.
        Amplitudes will be solved using standard  algorithm.
     Hard-coded thresholds: 
     LinDepThresh=1.00e-15  NormThresh=1.00e-06  ReorthogonThresh=1.00e-02

      Roots     MaxVec    MaxIter   Precond   Conv      Shift    
      1         120       60        1         1.00e-05  0.00e+00  
 ------------------------------------------------------------------------------
      Iter ConvRoots NVecs ResNorm Current eigenvalues (eV)
 ------------------------------------------------------------------------------
      0    0      1     3.36e-02   7.9670   
      1    0      2     1.73e-01   7.1250   
      2    0      3     2.40e-02   6.3273   
      3    0      4     1.66e-03   6.1343   
      4    0      5     1.19e-03   6.0929   
      5    0      6     1.41e-04   6.0882   
      6    1      7     6.64e-06   6.0879*  

     Davidson procedure converged

 EOMEE transition 1/A1
 Total energy = -74.72448819 a.u.  Excitation energy = 6.08789408 eV.
 R0^2 = 0.0000  R1^2 = 0.9883  R2^2 = 0.0117  Res^2 = 6.64e-06
 Conv-d = yes

 Amplitude    Transitions between orbitals
 -0.6327334374       3 (A1) A                  ->    4 (A1) A                   
  0.6327334374       3 (A1) B                  ->    4 (A1) B                   
  0.3026883769       1 (B1) A                  ->    2 (B1) A                   
 -0.3026883769       1 (B1) B                  ->    2 (B1) B                   
  0.0465627584       2 (A1) A                  ->    4 (A1) A                   
 -0.0465627584       2 (A1) B                  ->    4 (A1) B                   
 -0.0005248758       1 (A1) A                  ->    4 (A1) A                   
  0.0005248758       1 (A1) B                  ->    4 (A1) B                   
 -0.0504799647       3 (A1) A      1 (B1) B    ->    2 (B1) A      4 (A1) B     
  0.0504799647       3 (A1) A      1 (B1) B    ->    4 (A1) B      2 (B1) A     
  0.0504799647       1 (B1) A      3 (A1) B    ->    4 (A1) A      2 (B1) B     
 -0.0504799647       1 (B1) A      3 (A1) B    ->    2 (B1) B      4 (A1) A     
 -0.0504799647       3 (A1) B      1 (B1) A    ->    4 (A1) A      2 (B1) B     
  0.0504799647       3 (A1) B      1 (B1) A    ->    2 (B1) B      4 (A1) A     
  0.0504799647       1 (B1) B      3 (A1) A    ->    2 (B1) A      4 (A1) B     
 -0.0504799647       1 (B1) B      3 (A1) A    ->    4 (A1) B      2 (B1) A     
 -0.0480119228       3 (A1) A      1 (B1) B    ->    4 (A1) A      2 (B1) B     
  0.0480119228       3 (A1) A      1 (B1) B    ->    2 (B1) B      4 (A1) A     
  0.0480119228       1 (B1) A      3 (A1) B    ->    2 (B1) A      4 (A1) B     
 -0.0480119228       1 (B1) A      3 (A1) B    ->    4 (A1) B      2 (B1) A     
 -0.0480119228       3 (A1) B      1 (B1) A    ->    2 (B1) A      4 (A1) B     
  0.0480119228       3 (A1) B      1 (B1) A    ->    4 (A1) B      2 (B1) A     
  0.0480119228       1 (B1) B      3 (A1) A    ->    4 (A1) A      2 (B1) B     
 -0.0480119228       1 (B1) B      3 (A1) A    ->    2 (B1) B      4 (A1) A     
 -0.0264310485       2 (A1) A      1 (B1) B    ->    4 (A1) A      2 (B1) B     
  0.0264310485       2 (A1) A      1 (B1) B    ->    2 (B1) B      4 (A1) A     
  0.0264310485       1 (B1) A      2 (A1) B    ->    2 (B1) A      4 (A1) B     
 -0.0264310485       1 (B1) A      2 (A1) B    ->    4 (A1) B      2 (B1) A     
 -0.0264310485       2 (A1) B      1 (B1) A    ->    2 (B1) A      4 (A1) B     
  0.0264310485       2 (A1) B      1 (B1) A    ->    4 (A1) B      2 (B1) A     
  0.0264310485       1 (B1) B      2 (A1) A    ->    4 (A1) A      2 (B1) B     
 -0.0264310485       1 (B1) B      2 (A1) A    ->    2 (B1) B      4 (A1) A     
  0.0110500531       2 (A1) A      3 (A1) B    ->    2 (B1) A      2 (B1) B     
 -0.0110500531       3 (A1) A      2 (A1) B    ->    2 (B1) A      2 (B1) B     
 -0.0110500531       2 (A1) A      3 (A1) B    ->    2 (B1) B      2 (B1) A     
  0.0110500531       3 (A1) A      2 (A1) B    ->    2 (B1) B      2 (B1) A     
 -0.0110500531       3 (A1) B      2 (A1) A    ->    2 (B1) A      2 (B1) B     
  0.0110500531       2 (A1) B      3 (A1) A    ->    2 (B1) A      2 (B1) B     
 -0.0110500531       2 (A1) B      3 (A1) A    ->    2 (B1) B      2 (B1) A     
  0.0110500531       3 (A1) B      2 (A1) A    ->    2 (B1) B      2 (B1) A     
  0.0090435756       2 (A1) A      1 (B1) B    ->    2 (B1) A      4 (A1) B     
 -0.0090435756       2 (A1) A      1 (B1) B    ->    4 (A1) B      2 (B1) A     
 -0.0090435756       1 (B1) A      2 (A1) B    ->    4 (A1) A      2 (B1) B     
  0.0090435756       1 (B1) A      2 (A1) B    ->    2 (B1) B      4 (A1) A     
  0.0090435756       2 (A1) B      1 (B1) A    ->    4 (A1) A      2 (B1) B     
 -0.0090435756       2 (A1) B      1 (B1) A    ->    2 (B1) B      4 (A1) A     
 -0.0090435756       1 (B1) B      2 (A1) A    ->    2 (B1) A      4 (A1) B     
  0.0090435756       1 (B1) B      2 (A1) A    ->    4 (A1) B      2 (B1) A     
 -0.0072100124       3 (A1) A      1 (B1) A    ->    4 (A1) A      2 (B1) A     
  0.0072100124       3 (A1) A      1 (B1) A    ->    2 (B1) A      4 (A1) A     
  0.0072100124       1 (B1) A      3 (A1) A    ->    4 (A1) A      2 (B1) A     
 -0.0072100124       1 (B1) A      3 (A1) A    ->    2 (B1) A      4 (A1) A     
  0.0072100124       3 (A1) B      1 (B1) B    ->    4 (A1) B      2 (B1) B     
 -0.0072100124       3 (A1) B      1 (B1) B    ->    2 (B1) B      4 (A1) B     
 -0.0072100124       1 (B1) B      3 (A1) B    ->    4 (A1) B      2 (B1) B     
  0.0072100124       1 (B1) B      3 (A1) B    ->    2 (B1) B      4 (A1) B     
 -0.0069563850       2 (A1) A      1 (B1) A    ->    4 (A1) A      2 (B1) A     
  0.0069563850       2 (A1) A      1 (B1) A    ->    2 (B1) A      4 (A1) A     
  0.0069563850       1 (B1) A      2 (A1) A    ->    4 (A1) A      2 (B1) A     
 -0.0069563850       1 (B1) A      2 (A1) A    ->    2 (B1) A      4 (A1) A     
  0.0069563850       2 (A1) B      1 (B1) B    ->    4 (A1) B      2 (B1) B     
 -0.0069563850       2 (A1) B      1 (B1) B    ->    2 (B1) B      4 (A1) B     
 -0.0069563850       1 (B1) B      2 (A1) B    ->    4 (A1) B      2 (B1) B     
  0.0069563850       1 (B1) B      2 (A1) B    ->    2 (B1) B      4 (A1) B     
  0.0017808567       2 (A1) A      3 (A1) B    ->    4 (A1) A      4 (A1) B     
 -0.0017808567       3 (A1) A      2 (A1) B    ->    4 (A1) A      4 (A1) B     
 -0.0017808567       2 (A1) A      3 (A1) B    ->    4 (A1) B      4 (A1) A     
  0.0017808567       3 (A1) A      2 (A1) B    ->    4 (A1) B      4 (A1) A     
 -0.0017808567       3 (A1) B      2 (A1) A    ->    4 (A1) A      4 (A1) B     
[...]
  0.0002887198       3 (A1) B      1 (A1) A    ->    4 (A1) B      2 (B1) A     
 -0.0002887198       1 (A1) B      3 (A1) A    ->    2 (B1) B      4 (A1) A     
 -0.0002726522       1 (A1) A      1 (B1) B    ->    4 (A1) A      4 (A1) B     
  0.0002726522       1 (A1) A      1 (B1) B    ->    4 (A1) B      4 (A1) A     
  0.0002726522       1 (B1) A      1 (A1) B    ->    4 (A1) A      4 (A1) B     
 -0.0002726522       1 (B1) A      1 (A1) B    ->    4 (A1) B      4 (A1) A     
 -0.0002726522       1 (A1) B      1 (B1) A    ->    4 (A1) A      4 (A1) B     
  0.0002726522       1 (A1) B      1 (B1) A    ->    4 (A1) B      4 (A1) A     
  0.0002726522       1 (B1) B      1 (A1) A    ->    4 (A1) A      4 (A1) B     
 -0.0002726522       1 (B1) B      1 (A1) A    ->    4 (A1) B      4 (A1) A     
 -0.0001802895       1 (A1) A      1 (B1) B    ->    2 (B1) A      2 (B1) B     
  0.0001802895       1 (A1) A      1 (B1) B    ->    2 (B1) B      2 (B1) A     
  0.0001802895       1 (B1) A      1 (A1) B    ->    2 (B1) A      2 (B1) B     
 -0.0001802895       1 (B1) A      1 (A1) B    ->    2 (B1) B      2 (B1) A     
 -0.0001802895       1 (A1) B      1 (B1) A    ->    2 (B1) A      2 (B1) B     
  0.0001802895       1 (A1) B      1 (B1) A    ->    2 (B1) B      2 (B1) A     
  0.0001802895       1 (B1) B      1 (A1) A    ->    2 (B1) A      2 (B1) B     
 -0.0001802895       1 (B1) B      1 (A1) A    ->    2 (B1) B      2 (B1) A     
  0.0001179568       1 (A1) A      2 (A1) B    ->    4 (A1) A      2 (B1) B     
 -0.0001179568       2 (A1) A      1 (A1) B    ->    2 (B1) A      4 (A1) B     
  0.0001179568       2 (A1) A      1 (A1) B    ->    4 (A1) B      2 (B1) A     
 -0.0001179568       1 (A1) A      2 (A1) B    ->    2 (B1) B      4 (A1) A     
 -0.0001179568       2 (A1) B      1 (A1) A    ->    4 (A1) A      2 (B1) B     
  0.0001179568       1 (A1) B      2 (A1) A    ->    2 (B1) A      4 (A1) B     
 -0.0001179568       1 (A1) B      2 (A1) A    ->    4 (A1) B      2 (B1) A     
  0.0001179568       2 (A1) B      1 (A1) A    ->    2 (B1) B      4 (A1) A     
 -0.0000756400       1 (A1) A      3 (A1) A    ->    4 (A1) A      2 (B1) A     
  0.0000756400       3 (A1) A      1 (A1) A    ->    4 (A1) A      2 (B1) A     
  0.0000756400       1 (A1) A      3 (A1) A    ->    2 (B1) A      4 (A1) A     
 -0.0000756400       3 (A1) A      1 (A1) A    ->    2 (B1) A      4 (A1) A     
  0.0000756400       1 (A1) B      3 (A1) B    ->    4 (A1) B      2 (B1) B     
 -0.0000756400       3 (A1) B      1 (A1) B    ->    4 (A1) B      2 (B1) B     
 -0.0000756400       1 (A1) B      3 (A1) B    ->    2 (B1) B      4 (A1) B     
  0.0000756400       3 (A1) B      1 (A1) B    ->    2 (B1) B      4 (A1) B     
  0.0000558526       1 (A1) A      1 (A1) B    ->    4 (A1) A      2 (B1) B     
 -0.0000558526       1 (A1) A      1 (A1) B    ->    2 (B1) A      4 (A1) B     
  0.0000558526       1 (A1) A      1 (A1) B    ->    4 (A1) B      2 (B1) A     
 -0.0000558526       1 (A1) A      1 (A1) B    ->    2 (B1) B      4 (A1) A     
 -0.0000558526       1 (A1) B      1 (A1) A    ->    4 (A1) A      2 (B1) B     
  0.0000558526       1 (A1) B      1 (A1) A    ->    2 (B1) A      4 (A1) B     
 -0.0000558526       1 (A1) B      1 (A1) A    ->    4 (A1) B      2 (B1) A     
  0.0000558526       1 (A1) B      1 (A1) A    ->    2 (B1) B      4 (A1) A     
  0.0000318721       1 (A1) A      3 (A1) B    ->    4 (A1) A      2 (B1) B     
 -0.0000318721       3 (A1) A      1 (A1) B    ->    2 (B1) A      4 (A1) B     
  0.0000318721       3 (A1) A      1 (A1) B    ->    4 (A1) B      2 (B1) A     
 -0.0000318721       1 (A1) A      3 (A1) B    ->    2 (B1) B      4 (A1) A     
 -0.0000318721       3 (A1) B      1 (A1) A    ->    4 (A1) A      2 (B1) B     
  0.0000318721       1 (A1) B      3 (A1) A    ->    2 (B1) A      4 (A1) B     
 -0.0000318721       1 (A1) B      3 (A1) A    ->    4 (A1) B      2 (B1) A     
  0.0000318721       3 (A1) B      1 (A1) A    ->    2 (B1) B      4 (A1) A     
  0.0000260663       1 (A1) A      2 (A1) A    ->    4 (A1) A      2 (B1) A     
 -0.0000260663       2 (A1) A      1 (A1) A    ->    4 (A1) A      2 (B1) A     
 -0.0000260663       1 (A1) A      2 (A1) A    ->    2 (B1) A      4 (A1) A     
  0.0000260663       2 (A1) A      1 (A1) A    ->    2 (B1) A      4 (A1) A     
 -0.0000260663       1 (A1) B      2 (A1) B    ->    4 (A1) B      2 (B1) B     
  0.0000260663       2 (A1) B      1 (A1) B    ->    4 (A1) B      2 (B1) B     
  0.0000260663       1 (A1) B      2 (A1) B    ->    2 (B1) B      4 (A1) B     
 -0.0000260663       2 (A1) B      1 (A1) B    ->    2 (B1) B      4 (A1) B     
 -0.0000145587       2 (A1) A      1 (A1) B    ->    4 (A1) A      2 (B1) B     
  0.0000145587       1 (A1) A      2 (A1) B    ->    2 (B1) A      4 (A1) B     
 -0.0000145587       1 (A1) A      2 (A1) B    ->    4 (A1) B      2 (B1) A     
  0.0000145587       2 (A1) A      1 (A1) B    ->    2 (B1) B      4 (A1) A     
  0.0000145587       1 (A1) B      2 (A1) A    ->    4 (A1) A      2 (B1) B     
 -0.0000145587       2 (A1) B      1 (A1) A    ->    2 (B1) A      4 (A1) B     
  0.0000145587       2 (A1) B      1 (A1) A    ->    4 (A1) B      2 (B1) A     
 -0.0000145587       1 (A1) B      2 (A1) A    ->    2 (B1) B      4 (A1) A     

              Summary of significant orbitals:

               Number  Type             Irrep      Energy
               1       Occ  Alpha       1 (A1)    -20.2909
               2       Occ  Alpha       2 (A1)     -1.1635
               4       Occ  Alpha       3 (A1)     -0.4057
               3       Occ  Alpha       1 (B1)     -0.4695
               5       Occ  Alpha       1 (B2)     -0.3922
               1       Occ  Beta        1 (A1)    -20.2909
               2       Occ  Beta        2 (A1)     -1.1635
               4       Occ  Beta        3 (A1)     -0.4057
               3       Occ  Beta        1 (B1)     -0.4695
               5       Occ  Beta        1 (B2)     -0.3922
               6       Vir  Alpha       4 (A1)      0.3397
               7       Vir  Alpha       2 (B1)      0.4255
               6       Vir  Beta        4 (A1)      0.3397
               7       Vir  Beta        2 (B1)      0.4255


 EEs and amplitudes of EOMEE has be exported to fchk file
Running a double precision version
      EOM-CCSD/MP2 left amplitudes will be solved using Davidson.
        Amplitudes will be solved using MOM  algorithm.
     Hard-coded thresholds: 
     LinDepThresh=1.00e-15  NormThresh=1.00e-06  ReorthogonThresh=1.00e-02

      Roots     MaxVec    MaxIter   Precond   Conv      Shift    
      1         120       60        1         1.00e-05  0.00e+00  
 ------------------------------------------------------------------------------
      Iter ConvRoots NVecs ResNorm Current eigenvalues (eV)
 ------------------------------------------------------------------------------
      0    0      1     4.90e-04   7.4186   
      1    0      2     2.42e-03   7.4186   
      2    0      3     1.44e-04   7.4185   
      3    0      4     3.92e-05   7.4185   
      4    0      5     3.13e-05   7.4185   
      5    1      6     1.66e-06   7.4185*  

     Davidson procedure converged

 Excited state properties for  EOMEE-CCSD transition 1/B1
 Dipole moment (a.u.): 0.118170 (X 0.000000, Y 0.000000, Z -0.118170)
 R-squared (a.u.): 24.125308 (XX 11.624606, YY 4.698696, ZZ 7.802007)
 Gauge origin (a.u.): (0.000000, 0.000000, 0.000000)
 Angular momentum (a.u.) against gauge origin: 
 (X 0.000000i, Y 0.000000i, Z 0.000000i)
 Traces of the OPDMs: Tr(AA) 5.000000, Tr(BB) 5.000000

        Solving for EOMEE-CCSD B2 triplet states.

Running a double precision version
        EOMEE-CCSD/MP2 right amplitudes will be solved using Davidson.
        Amplitudes will be solved using standard  algorithm.
     Hard-coded thresholds: 
     LinDepThresh=1.00e-15  NormThresh=1.00e-06  ReorthogonThresh=1.00e-02

      Roots     MaxVec    MaxIter   Precond   Conv      Shift    
      1         120       60        1         1.00e-05  0.00e+00  
 ------------------------------------------------------------------------------
      Iter ConvRoots NVecs ResNorm Current eigenvalues (eV)
 ------------------------------------------------------------------------------
      0    0      1     4.56e-02   6.2854   
      1    0      2     2.33e-01   4.8156   
      2    0      3     1.64e-03   4.3640   
      3    0      4     3.96e-05   4.3481   
      4    1      5     8.59e-06   4.3507*  

     Davidson procedure converged

 EOMEE transition 1/B2
 Total energy = -74.78832938 a.u.  Excitation energy = 4.35068688 eV.
 R0^2 = 0.0000  R1^2 = 0.8992  R2^2 = 0.1008  Res^2 = 8.59e-06
 Conv-d = yes

 Amplitude    Transitions between orbitals
  0.6705243482       1 (B2) A                  ->    4 (A1) A                   
 -0.6705243482       1 (B2) B                  ->    4 (A1) B                   
 -0.1584249690       1 (B1) A      1 (B2) B    ->    2 (B1) A      4 (A1) B     
  0.1584249690       1 (B1) A      1 (B2) B    ->    4 (A1) B      2 (B1) A     
  0.1584249690       1 (B2) A      1 (B1) B    ->    4 (A1) A      2 (B1) B     
 -0.1584249690       1 (B2) A      1 (B1) B    ->    2 (B1) B      4 (A1) A     
 -0.1584249690       1 (B1) B      1 (B2) A    ->    4 (A1) A      2 (B1) B     
  0.1584249690       1 (B1) B      1 (B2) A    ->    2 (B1) B      4 (A1) A     
  0.1584249690       1 (B2) B      1 (B1) A    ->    2 (B1) A      4 (A1) B     
 -0.1584249690       1 (B2) B      1 (B1) A    ->    4 (A1) B      2 (B1) A     
  0.1087956199       3 (A1) A      1 (B2) B    ->    4 (A1) A      4 (A1) B     
 -0.1087956199       3 (A1) A      1 (B2) B    ->    4 (A1) B      4 (A1) A     
 -0.1087956199       1 (B2) A      3 (A1) B    ->    4 (A1) A      4 (A1) B     
  0.1087956199       1 (B2) A      3 (A1) B    ->    4 (A1) B      4 (A1) A     
  0.1087956199       3 (A1) B      1 (B2) A    ->    4 (A1) A      4 (A1) B     
 -0.1087956199       3 (A1) B      1 (B2) A    ->    4 (A1) B      4 (A1) A     
 -0.1087956199       1 (B2) B      3 (A1) A    ->    4 (A1) A      4 (A1) B     
  0.1087956199       1 (B2) B      3 (A1) A    ->    4 (A1) B      4 (A1) A     
  0.0993941611       3 (A1) A      1 (B2) B    ->    2 (B1) A      2 (B1) B     
 -0.0993941611       3 (A1) A      1 (B2) B    ->    2 (B1) B      2 (B1) A     
 -0.0993941611       1 (B2) A      3 (A1) B    ->    2 (B1) A      2 (B1) B     
  0.0993941611       1 (B2) A      3 (A1) B    ->    2 (B1) B      2 (B1) A     
  0.0993941611       3 (A1) B      1 (B2) A    ->    2 (B1) A      2 (B1) B     
 -0.0993941611       3 (A1) B      1 (B2) A    ->    2 (B1) B      2 (B1) A     
 -0.0993941611       1 (B2) B      3 (A1) A    ->    2 (B1) A      2 (B1) B     
  0.0993941611       1 (B2) B      3 (A1) A    ->    2 (B1) B      2 (B1) A     
 -0.0576050044       1 (B1) A      1 (B2) B    ->    4 (A1) A      2 (B1) B     
  0.0576050044       1 (B1) A      1 (B2) B    ->    2 (B1) B      4 (A1) A     
  0.0576050044       1 (B2) A      1 (B1) B    ->    2 (B1) A      4 (A1) B     
 -0.0576050044       1 (B2) A      1 (B1) B    ->    4 (A1) B      2 (B1) A     
 -0.0576050044       1 (B1) B      1 (B2) A    ->    2 (B1) A      4 (A1) B     
  0.0576050044       1 (B1) B      1 (B2) A    ->    4 (A1) B      2 (B1) A     
  0.0576050044       1 (B2) B      1 (B1) A    ->    4 (A1) A      2 (B1) B     
 -0.0576050044       1 (B2) B      1 (B1) A    ->    2 (B1) B      4 (A1) A     
 -0.0138515284       1 (B1) A      1 (B2) A    ->    4 (A1) A      2 (B1) A     
  0.0138515284       1 (B1) A      1 (B2) A    ->    2 (B1) A      4 (A1) A     
  0.0138515284       1 (B2) A      1 (B1) A    ->    4 (A1) A      2 (B1) A     
 -0.0138515284       1 (B2) A      1 (B1) A    ->    2 (B1) A      4 (A1) A     
  0.0138515284       1 (B1) B      1 (B2) B    ->    4 (A1) B      2 (B1) B     
 -0.0138515284       1 (B1) B      1 (B2) B    ->    2 (B1) B      4 (A1) B     
 -0.0138515284       1 (B2) B      1 (B1) B    ->    4 (A1) B      2 (B1) B     
  0.0138515284       1 (B2) B      1 (B1) B    ->    2 (B1) B      4 (A1) B     
 -0.0084069829       2 (A1) A      1 (B2) B    ->    2 (B1) A      2 (B1) B     
  0.0084069829       2 (A1) A      1 (B2) B    ->    2 (B1) B      2 (B1) A     
  0.0084069829       1 (B2) A      2 (A1) B    ->    2 (B1) A      2 (B1) B     
 -0.0084069829       1 (B2) A      2 (A1) B    ->    2 (B1) B      2 (B1) A     
 -0.0084069829       2 (A1) B      1 (B2) A    ->    2 (B1) A      2 (B1) B     
  0.0084069829       2 (A1) B      1 (B2) A    ->    2 (B1) B      2 (B1) A     
  0.0084069829       1 (B2) B      2 (A1) A    ->    2 (B1) A      2 (B1) B     
 -0.0084069829       1 (B2) B      2 (A1) A    ->    2 (B1) B      2 (B1) A     
 -0.0013338909       2 (A1) A      1 (B2) B    ->    4 (A1) A      4 (A1) B     
  0.0013338909       2 (A1) A      1 (B2) B    ->    4 (A1) B      4 (A1) A     
  0.0013338909       1 (B2) A      2 (A1) B    ->    4 (A1) A      4 (A1) B     
 -0.0013338909       1 (B2) A      2 (A1) B    ->    4 (A1) B      4 (A1) A     
 -0.0013338909       2 (A1) B      1 (B2) A    ->    4 (A1) A      4 (A1) B     
  0.0013338909       2 (A1) B      1 (B2) A    ->    4 (A1) B      4 (A1) A     
  0.0013338909       1 (B2) B      2 (A1) A    ->    4 (A1) A      4 (A1) B     
 -0.0013338909       1 (B2) B      2 (A1) A    ->    4 (A1) B      4 (A1) A     
 -0.0005233923       1 (A1) A      1 (B2) B    ->    4 (A1) A      4 (A1) B     
  0.0005233923       1 (A1) A      1 (B2) B    ->    4 (A1) B      4 (A1) A     
  0.0005233923       1 (B2) A      1 (A1) B    ->    4 (A1) A      4 (A1) B     
 -0.0005233923       1 (B2) A      1 (A1) B    ->    4 (A1) B      4 (A1) A     
 -0.0005233923       1 (A1) B      1 (B2) A    ->    4 (A1) A      4 (A1) B     
  0.0005233923       1 (A1) B      1 (B2) A    ->    4 (A1) B      4 (A1) A     
  0.0005233923       1 (B2) B      1 (A1) A    ->    4 (A1) A      4 (A1) B     
 -0.0005233923       1 (B2) B      1 (A1) A    ->    4 (A1) B      4 (A1) A     
 -0.0000977495       1 (A1) A      1 (B2) B    ->    2 (B1) A      2 (B1) B     
  0.0000977495       1 (A1) A      1 (B2) B    ->    2 (B1) B      2 (B1) A     
  0.0000977495       1 (B2) A      1 (A1) B    ->    2 (B1) A      2 (B1) B     
 -0.0000977495       1 (B2) A      1 (A1) B    ->    2 (B1) B      2 (B1) A     
 -0.0000977495       1 (A1) B      1 (B2) A    ->    2 (B1) A      2 (B1) B     
  0.0000977495       1 (A1) B      1 (B2) A    ->    2 (B1) B      2 (B1) A     
  0.0000977495       1 (B2) B      1 (A1) A    ->    2 (B1) A      2 (B1) B     
 -0.0000977495       1 (B2) B      1 (A1) A    ->    2 (B1) B      2 (B1) A     

              Summary of significant orbitals:

               Number  Type             Irrep      Energy
               1       Occ  Alpha       1 (A1)    -20.2909
               2       Occ  Alpha       2 (A1)     -1.1635
               4       Occ  Alpha       3 (A1)     -0.4057
               3       Occ  Alpha       1 (B1)     -0.4695
               5       Occ  Alpha       1 (B2)     -0.3922
               1       Occ  Beta        1 (A1)    -20.2909
               2       Occ  Beta        2 (A1)     -1.1635
               4       Occ  Beta        3 (A1)     -0.4057
               3       Occ  Beta        1 (B1)     -0.4695
               5       Occ  Beta        1 (B2)     -0.3922
               6       Vir  Alpha       4 (A1)      0.3397
               7       Vir  Alpha       2 (B1)      0.4255
               6       Vir  Beta        4 (A1)      0.3397
               7       Vir  Beta        2 (B1)      0.4255


 EEs and amplitudes of EOMEE has be exported to fchk file
Running a double precision version
      EOM-CCSD/MP2 left amplitudes will be solved using Davidson.
        Amplitudes will be solved using MOM  algorithm.
     Hard-coded thresholds: 
     LinDepThresh=1.00e-15  NormThresh=1.00e-06  ReorthogonThresh=1.00e-02

      Roots     MaxVec    MaxIter   Precond   Conv      Shift    
      1         120       60        1         1.00e-05  0.00e+00  
 ------------------------------------------------------------------------------
      Iter ConvRoots NVecs ResNorm Current eigenvalues (eV)
 ------------------------------------------------------------------------------
      0    0      1     1.37e-03   4.3507   
      1    0      2     2.38e-03   4.3496   
      2    0      3     4.02e-05   4.3496   
      3    1      4     1.13e-06   4.3496*  

     Davidson procedure converged

 Excited state properties for  EOMEE-CCSD transition 1/B2
 Dipole moment (a.u.): 0.007303 (X 0.000000, Y 0.000000, Z 0.007303)
 R-squared (a.u.): 24.641756 (XX 12.115122, YY 4.180507, ZZ 8.346127)
 Gauge origin (a.u.): (0.000000, 0.000000, 0.000000)
 Angular momentum (a.u.) against gauge origin: 
 (X 0.000000i, Y 0.000000i, Z 0.000000i)
 Traces of the OPDMs: Tr(AA) 5.000000, Tr(BB) 5.000000

 EOMEE-CCSD calculation:   CPU 13.34 s  wall 4.29 s

 Total ccman2 time:   CPU 17.97 s  wall 5.49 s


 --------------------------------------------------------------
             Orbital Energies (a.u.) and Symmetries
 --------------------------------------------------------------

 Alpha MOs, Restricted
 -- Occupied --                  
-20.291  -1.164  -0.470  -0.406  -0.392
  1 A1    2 A1    1 B1    3 A1    1 B2                                         
 -- Virtual --                   
  0.340   0.426
  4 A1    2 B1                                                                 

 Beta MOs, Restricted
 -- Occupied --                  
-20.291  -1.164  -0.470  -0.406  -0.392
  1 A1    2 A1    1 B1    3 A1    1 B2                                         
 -- Virtual --                   
  0.340   0.426
  4 A1    2 B1                                                                 
 --------------------------------------------------------------

          Ground-State Mulliken Net Atomic Charges

     Atom                 Charge (a.u.)
  ----------------------------------------
      1 O                    -0.103153
      2 H                     0.051577
      3 H                     0.051577
  ----------------------------------------
  Sum of atomic charges =     0.000000

 -----------------------------------------------------------------
                    Cartesian Multipole Moments
 -----------------------------------------------------------------
    Charge (ESU x 10^10)
                -0.0000
    Dipole Moment (Debye)
         X       0.0000      Y       0.0000      Z      -0.9505
       Tot       0.9505
    Quadrupole Moments (Debye-Ang)
        XX      -4.6755     XY       0.0000     YY      -6.3359
        XZ       0.0000     YZ       0.0000     ZZ      -5.4786
    Octopole Moments (Debye-Ang^2)
       XXX      -0.0000    XXY      -0.0000    XYY       0.0000
       YYY       0.0000    XXZ      -0.4299    XYZ       0.0000
       YYZ       0.2375    XZZ       0.0000    YZZ       0.0000
       ZZZ       0.6387
    Hexadecapole Moments (Debye-Ang^3)
      XXXX     -11.4316   XXXY       0.0000   XXYY      -2.7509
      XYYY      -0.0000   YYYY      -3.5289   XXXZ       0.0000
      XXYZ       0.0000   XYYZ      -0.0000   YYYZ      -0.0000
      XXZZ      -2.7844   XYZZ       0.0000   YYZZ      -1.8652
      XZZZ       0.0000   YZZZ      -0.0000   ZZZZ      -7.2982
 -----------------------------------------------------------------
 Total job time:  6.90s(wall), 20.21s(cpu) 
 Sun Sep  4 11:45:54 2022

        *************************************************************
        *                                                           *
        *  Thank you very much for using Q-Chem.  Have a nice day.  *
        *                                                           *
        *************************************************************


