Jobname.Temp
SP        R                             STO-3G              
Number of atoms                            I                2
Charge                                     I                0
Multiplicity                               I                1
Number of electrons                        I                4
Number of alpha electrons                  I                2
Number of beta electrons                   I                2
Atomic numbers                             I   N=           2
           3           1
Current cartesian coordinates              R   N=           6
  0.00000000E+00  0.00000000E+00 -6.14160991E-01  0.00000000E+00  0.00000000E+00
  1.84248297E+00
Nuclear charges                            R   N=           2
  3.00000000E+00  1.00000000E+00
Number of basis functions                  I                6
Number of contracted shells                I                3
Number of primitive shells                 I                9
Highest angular momentum                   I                1
Largest degree of contraction              I                3
Shell types                                I   N=           3
           0          -1           0
Number of primitives per shell             I   N=           3
           3           3           3
Shell to atom map                          I   N=           3
           1           1           2
Primitive exponents                        R   N=           9
  1.61195750E+01  2.93620070E+00  7.94650500E-01  6.36289700E-01  1.47860100E-01
  4.80887000E-02  3.42525091E+00  6.23913730E-01  1.68855400E-01
Contraction coefficients                   R   N=           9
  1.54328970E-01  5.35328141E-01  4.44634541E-01 -9.99672298E-02  3.99512829E-01
  7.00115469E-01  1.54328971E-01  5.35328142E-01  4.44634542E-01
P(S=P) Contraction coefficients            R   N=           9
  0.00000000E+00  0.00000000E+00  0.00000000E+00  1.55916265E-01  6.07683701E-01
  3.91957378E-01  0.00000000E+00  0.00000000E+00  0.00000000E+00
Coordinates of each shell                  R   N=           9
  0.00000000E+00  0.00000000E+00 -6.14160991E-01  0.00000000E+00  0.00000000E+00
 -6.14160991E-01  0.00000000E+00  0.00000000E+00  1.84248297E+00
Overlap Matrix                             R   N=          21
  1.00000000E+00  2.41136651E-01  1.00000000E+00  0.00000000E+00  0.00000000E+00
  1.00000000E+00  0.00000000E+00  0.00000000E+00  0.00000000E+00  1.00000000E+00
  1.99240464E-17  2.20133198E-17  0.00000000E+00  0.00000000E+00  1.00000000E+00
  1.25143291E-01  4.69412472E-01  0.00000000E+00  0.00000000E+00  5.53283584E-01
  1.00000000E+00
Core Hamiltonian Matrix                    R   N=          21
 -4.81315339E+00 -1.08264760E+00 -1.42944432E+00  0.00000000E+00  0.00000000E+00
 -1.16557116E+00  0.00000000E+00  0.00000000E+00  0.00000000E+00 -1.16557116E+00
 -2.42409116E-02 -1.36231007E-01  0.00000000E+00  0.00000000E+00 -1.27398633E+00
 -5.79694682E-01 -8.95554200E-01  0.00000000E+00  0.00000000E+00 -9.75073932E-01
 -1.67637137E+00
Orbital Coefficients CCMAN2 Alpha          R   N=          36
 -9.90363347E-01 -2.91880003E-02 -1.71068516E-16  4.81297831E-16  9.88750971E-03
 -1.53385343E-02  1.96215415E-01 -4.24995699E-01  3.42299746E-17 -3.61965074E-16
 -3.57119983E-01 -5.39795153E-01 -2.04851540E-01  8.09057525E-01 -1.31491141E-16
  1.58397342E-16 -6.09484190E-01 -1.27416909E-01  2.63896007E-17 -9.73228920E-17
 -1.00000000E+00  2.04783873E-16  4.03529285E-17  3.61154625E-17 -2.26181756E-16
  4.29329784E-17 -4.74505501E-16 -1.00000000E+00 -3.92738539E-16  5.56717195E-16
  2.81528788E-02 -8.27720722E-01  3.10606670E-17  2.00611742E-16 -1.07124894E+00
  1.34336499E+00
Orbital Coefficients CCMAN2 Beta           R   N=          36
  1.96215415E-01 -4.24995699E-01  3.42299746E-17 -3.61965074E-16 -3.57119983E-01
 -5.39795153E-01 -2.04851540E-01  8.09057525E-01 -1.31491141E-16  1.58397342E-16
 -6.09484190E-01 -1.27416909E-01  2.63896007E-17 -9.73228920E-17 -1.00000000E+00
  2.04783873E-16  4.03529285E-17  3.61154625E-17 -2.26181756E-16  4.29329784E-17
 -4.74505501E-16 -1.00000000E+00 -3.92738539E-16  5.56717195E-16  2.81528788E-02
 -8.27720722E-01  3.10606670E-17  2.00611742E-16 -1.07124894E+00  1.34336499E+00
 -9.90363347E-01 -2.91880003E-02 -1.71068516E-16  4.81297831E-16  9.88750971E-03
 -1.53385343E-02
EOMEE transition A Excitation Energies     R   N=           3
  1.45029182E-01  1.99678773E-01  1.99678774E-01
Number of Active Occ                       I                4
Number of Active Vir                       I                8
Alpha Amplitudes                           R   N=           6
 -6.73058065E-01 -6.73058065E-01 -6.73467359E-01 -6.73467359E-01  6.73467359E-01
  6.73467359E-01
Alpha J Indexes                            I   N=           4
           0           2           4           6
Alpha I Indexes                            I   N=           6
           8          28          10          30           9          29
EOMEE transition A Excitation Energies     R   N=           3
  1.29999803E-01  1.73791174E-01  1.73791174E-01
Number of Active Occ                       I                4
Number of Active Vir                       I                8
Alpha Amplitudes                           R   N=           6
  6.85813365E-01 -6.85813365E-01 -6.87347752E-01  6.87347752E-01 -6.87347752E-01
  6.87347752E-01
Alpha J Indexes                            I   N=           4
           0           2           4           6
Alpha I Indexes                            I   N=           6
           8          28          10          30           9          29
Number of independent functions            I                6
Alpha MO coefficients                      R   N=          36
 -9.90363347E-01 -2.91880003E-02 -1.71068516E-16  4.81297831E-16  9.88750971E-03
 -1.53385343E-02  1.96215415E-01 -4.24995699E-01  3.42299746E-17 -3.61965074E-16
 -3.57119983E-01 -5.39795153E-01 -2.04851540E-01  8.09057525E-01 -1.31491141E-16
  1.58397342E-16 -6.09484190E-01 -1.27416909E-01  2.63896007E-17 -9.73228920E-17
 -1.00000000E+00  2.04783873E-16  4.03529285E-17  3.61154625E-17 -2.26181756E-16
  4.29329784E-17 -4.74505501E-16 -1.00000000E+00 -3.92738539E-16  5.56717195E-16
  2.81528788E-02 -8.27720722E-01  3.10606670E-17  2.00611742E-16 -1.07124894E+00
  1.34336499E+00
Alpha Orbital Energies                     R   N=           6
 -2.34671928E+00 -3.07826786E-01  7.96756155E-02  1.62516367E-01  1.62516368E-01
  6.13424396E-01
Total SCF Density                          R   N=          21
  2.04258662E+00 -1.23330197E-01  4.32119911E-01  3.94417835E-16 -6.13657179E-17
  1.94461384E-03 -4.54266341E-16 -4.12023044E-16  1.83389735E-18  1.94461385E-03
 -1.54627990E-01  3.16230867E-01 -5.65859809E-17 -2.82347460E-16  2.33994649E-01
 -1.81991759E-01  4.34956697E-01 -6.94003416E-17 -4.09066960E-16  3.28980902E-01
  6.20050892E-01
Pure Switching                             I                1
Dipole_Data                                R   N=           3
  4.14063244E-16  4.98198062E-15 -4.66051050E+00
Quadrupole_Data                            R   N=           6
 -5.30460241E+00 -1.15934387E-17 -5.30460241E+00  3.44088139E-16  8.78621970E-16
 -5.43518712E+00
Octapole_Data                              R   N=          10
  1.62573466E-15  3.86139122E-15  5.41911552E-16  1.15841737E-14 -3.23400063E+00
  3.76786758E-18 -3.23400063E+00  3.81347828E-16  3.39374820E-15 -9.40605785E+00
Hexadecapole_Data                          R   N=          15
 -1.26952341E+01 -3.06560418E-17 -4.23174469E+00 -3.06560418E-17 -1.26952341E+01
  5.75048229E-16  6.27774075E-16  1.91682743E-16  1.88332223E-15 -5.55726333E+00
 -1.14432376E-17 -5.55726333E+00  7.07579774E-16  2.47472419E-15 -2.10433746E+01
