                  Welcome to Q-Chem
     A Quantum Leap Into The Future Of Chemistry


 Q-Chem 5.4 (devel), Q-Chem, Inc., Pleasanton, CA (2021)

 E. Epifanovsky,  A. T. B. Gilbert,  Xintian Feng,  Joonho Lee,  Yuezhi Mao,  
 N. Mardirossian,  P. Pokhilko,  A. White,  M. Wormit,  M. P. Coons,  
 A. L. Dempwolff,  Zhengting Gan,  D. Hait,  P. R. Horn,  L. D. Jacobson,  
 I. Kaliman,  J. Kussmann,  A. W. Lange,  Ka Un Lao,  D. S. Levine,  Jie Liu,  
 S. C. McKenzie,  A. F. Morrison,  K. Nanda,  F. Plasser,  D. R. Rehn,  
 M. L. Vidal,  Zhi-Qiang You,  Ying Zhu,  B. Alam,  B. Albrecht,  
 A. Aldossary,  E. Alguire,  J. H. Andersen,  D. Barton,  K. Begam,  A. Behn,  
 Y. A. Bernard,  E. J. Berquist,  H. Burton,  A. Carreras,  K. Carter-Fenk,  
 R. Chakraborty,  A. D. Chien,  K. D. Closser,  V. Cofer-Shabica,  
 S. Dasgupta,  Jia Deng,  M. de Wergifosse,  M. Diedenhofen,  Hainam Do,  
 S. Ehlert,  Po-Tung Fang,  S. Fatehi,  Qingguo Feng,  T. Friedhoff,  
 J. Gayvert,  Qinghui Ge,  G. Gidofalvi,  M. Goldey,  J. Gomes,  
 C. Gonzalez-Espinoza,  S. Gulania,  A. Gunina,  M. W. D. Hanson-Heine,  
 P. H. P. Harbach,  A. W. Hauser,  M. F. Herbst,  M. Hernandez Vera,  
 M. Hodecker,  Z. C. Holden,  S. Houck,  Xunkun Huang,  Kerwin Hui,  
 B. C. Huynh,  M. Ivanov,  Hyunjun Ji,  Hanjie Jiang,  B. Kaduk,  S. Kaehler,  
 K. Khistyaev,  Jaehoon Kim,  P. Klunzinger,  Z. Koczor-Benda,  
 Joong Hoon Koh,  D. Kosenkov,  L. Koulias,  T. Kowalczyk,  C. M. Krauter,  
 K. Kue,  A. Kunitsa,  T. Kus,  A. Landau,  K. V. Lawler,  D. Lefrancois,  
 S. Lehtola,  Rain Li,  Yi-Pei Li,  Jiashu Liang,  M. Liebenthal,  
 Hung-Hsuan Lin,  You-Sheng Lin,  Fenglai Liu,  Kuan-Yu Liu,  
 M. Loipersberger,  A. Luenser,  A. Manjanath,  P. Manohar,  E. Mansoor,  
 S. F. Manzer,  Shan-Ping Mao,  A. V. Marenich,  T. Markovich,  S. Mason,  
 S. A. Maurer,  P. F. McLaughlin,  M. F. S. J. Menger,  J.-M. Mewes,  
 S. A. Mewes,  P. Morgante,  J. W. Mullinax,  K. J. Oosterbaan,  G. Paran,  
 Alexander C. Paul,  Suranjan K. Paul,  F. Pavosevic,  Zheng Pei,  S. Prager,  
 E. I. Proynov,  E. Ramos,  B. Rana,  A. E. Rask,  A. Rettig,  R. M. Richard,  
 F. Rob,  E. Rossomme,  T. Scheele,  M. Scheurer,  M. Schneider,  
 N. Sergueev,  S. M. Sharada,  W. Skomorowski,  D. W. Small,  C. J. Stein,  
 Yu-Chuan Su,  E. J. Sundstrom,  Zhen Tao,  J. Thirman,  T. Tsuchimochi,  
 N. M. Tubman,  S. P. Veccham,  O. Vydrov,  J. Wenzel,  J. Witte,  A. Yamada,  
 Kun Yao,  S. Yeganeh,  S. R. Yost,  A. Zech,  Igor Ying Zhang,  Xing Zhang,  
 Yu Zhang,  D. Zuev,  A. Aspuru-Guzik,  A. T. Bell,  N. A. Besley,  
 K. B. Bravaya,  B. R. Brooks,  D. Casanova,  Jeng-Da Chai,  S. Coriani,  
 C. J. Cramer,  A. E. DePrince, III,  R. A. DiStasio Jr.,  A. Dreuw,  
 B. D. Dunietz,  T. R. Furlani,  W. A. Goddard III,  S. Grimme,  
 S. Hammes-Schiffer,  T. Head-Gordon,  W. J. Hehre,  Chao-Ping Hsu,  
 T.-C. Jagau,  Yousung Jung,  A. Klamt,  Jing Kong,  D. S. Lambrecht,  
 WanZhen Liang,  N. J. Mayhall,  C. W. McCurdy,  J. B. Neaton,  
 C. Ochsenfeld,  J. A. Parkhill,  R. Peverati,  V. A. Rassolov,  Yihan Shao,  
 L. V. Slipchenko,  T. Stauch,  R. P. Steele,  J. E. Subotnik,  
 A. J. W. Thom,  A. Tkatchenko,  D. G. Truhlar,  T. Van Voorhis,  
 T. A. Wesolowski,  K. B. Whaley,  H. L. Woodcock III,  P. M. Zimmerman,  
 S. Faraji,  P. M. W. Gill,  M. Head-Gordon,  J. M. Herbert,  A. I. Krylov

 Additional authors for Version 5.4.1: 
 S. Kotaru,  Shaozhi Li,  Xiangyuan Li,  F. Matz,  A. Molle,  Haisheng Ren,  
 Yingli Su,  Hung-Yi Tsai,  C. Utku,  Fang Wang

 Contributors to earlier versions of Q-Chem not listed above: 
 R. D. Adamson,  B. Austin,  R. Baer,  J. Baker,  G. J. O. Beran,  
 K. Brandhorst,  S. T. Brown,  E. F. C. Byrd,  A. K. Chakraborty,  
 G. K. L. Chan,  Chun-Min Chang,  Yunqing Chen,  C.-L. Cheng,  
 Siu Hung Chien,  D. M. Chipman,  D. L. Crittenden,  H. Dachsel,  
 R. J. Doerksen,  A. D. Dutoi,  R. G. Edgar,  J. Fosso-Tande,  
 L. Fusti-Molnar,  D. Ghosh,  A. Ghysels,  A. Golubeva-Zadorozhnaya,  
 J. Gonthier,  M. S. Gordon,  S. R. Gwaltney,  G. Hawkins,  J. E. Herr,  
 A. Heyden,  S. Hirata,  E. G. Hohenstein,  G. Kedziora,  F. J. Keil,  
 C. Kelley,  Jihan Kim,  R. A. King,  R. Z. Khaliullin,  P. P. Korambath,  
 W. Kurlancheek,  A. Laurent,  A. M. Lee,  M. S. Lee,  S. V. Levchenko,  
 Ching Yeh Lin,  D. Liotard,  E. Livshits,  R. C. Lochan,  I. Lotan,  
 L. A. Martinez-Martinez,  P. E. Maslen,  N. Nair,  D. P. O'Neill,  
 D. Neuhauser,  E. Neuscamman,  C. M. Oana,  R. Olivares-Amaya,  R. Olson,  
 T. M. Perrine,  B. Peters,  P. A. Pieniazek,  A. Prociuk,  Y. M. Rhee,  
 J. Ritchie,  M. A. Rohrdanz,  E. Rosta,  N. J. Russ,  H. F. Schaefer III,  
 M. W. Schmidt,  N. E. Schultz,  S. Sharma,  N. Shenvi,  C. D. Sherrill,  
 A. C. Simmonett,  A. Sodt,  T. Stein,  D. Stuck,  K. S. Thanthiriwatte,  
 V. Vanovschi,  L. Vogt,  Tao Wang,  A. Warshel,  M. A. Watson,  
 C. F. Williams,  Q. Wu,  X. Xu,  Jun Yang,  W. Zhang,  Yan Zhao

 Please cite Q-Chem as follows:
 Y. Shao et al., Mol. Phys. 113, 184-215 (2015)
 DOI: 10.1080/00268976.2014.952696

 Q-Chem 5.4.1 for Intel X86 EM64T Linux

 Parts of Q-Chem use Armadillo 9.900.5 (Nocturnal Misbehaviour).
 http://arma.sourceforge.net/

 Q-Chem begins on Thu Aug 11 11:27:37 2022  

orc41
 Host: 0

     Scratch files written to /scratch/yongbin/qchem19680//
 Processing $rem in /home/users/yongbin/software/yongbin_quantum/config/preferences:
 Processing $rem in /home/users/yongbin/.qchemrc:

 Checking the input file for inconsistencies... 	...done.

--------------------------------------------------------------
User input:
--------------------------------------------------------------
$comment
Hydrogen molecule
$end

$molecule
0 1
  Li        0.0000000000    0.0000000000    0.0000000000
  H         0.0000000000    0.0000000000    1.3000000000
$end

$rem
   n_frozen_core = 0
   print_qis = true
   BASIS                = sto-3g
   SYMMETRY             = false
   CC_SYMMETRY          = false
   METHOD               = eom-ccsd
   EE_SINGLETS          = [3]  ! Compute two EOM-EE singlet excited states
   EE_TRIPLETS          = [3]  ! Compute two EOM-EE triplet excited states
   CC_REF_PROP          = true ! Compute ground state properties
   CC_EOM_PROP          = true ! Compute excited state properties
   CC_OSFNO             = true
   GUI                  = 2
$end                  
--------------------------------------------------------------
 ----------------------------------------------------------------
             Standard Nuclear Orientation (Angstroms)
    I     Atom           X                Y                Z
 ----------------------------------------------------------------
    1      Li      0.0000000000     0.0000000000    -0.3250000000
    2      H       0.0000000000     0.0000000000     0.9750000000
 ----------------------------------------------------------------
 Molecular Point Group                 C*v   NOp =***
 Largest Abelian Subgroup              C2v   NOp =  1
 Nuclear Repulsion Energy =           1.22117818 hartrees
 There are        2 alpha and        2 beta electrons
 Requested basis set is STO-3G
 There are 3 shells and 6 basis functions
 Total memory of 2000 MB is distributed as follows: 
   MEM_STATIC is set to 192 MB
   QALLOC/CCMAN JOB total memory use is  1808 MB
 Warning: actual memory use might exceed 2000 MB

 Total QAlloc Memory Limit   2000 MB
 Mega-Array Size       188 MB
 MEM_STATIC part       192 MB

                       Distance Matrix (Angstroms)
             Li(  1)
   H (  2)  1.300000

 A cutoff of  1.0D-14 yielded      6 shell pairs
 There are        27 function pairs
 Smallest overlap matrix eigenvalue = 2.74E-01

 Scale SEOQF with 1.000000e+00/1.000000e+00/1.000000e+00

 Standard Electronic Orientation quadrupole field applied
 Nucleus-field energy     =    -0.0000000014 hartrees
 Guess from superposition of atomic densities
 Warning:  Energy on first SCF cycle will be non-variational
 SAD guess density has 4.000000 electrons

 -----------------------------------------------------------------------
  General SCF calculation program by
  Eric Jon Sundstrom, Paul Horn, Yuezhi Mao, Dmitri Zuev, Alec White,
  David Stuck, Shaama M.S., Shane Yost, Joonho Lee, David Small,
  Daniel Levine, Susi Lehtola, Hugh Burton, Evgeny Epifanovsky,
  Bang C. Huynh
 -----------------------------------------------------------------------
 Hartree-Fock
 using 20 threads for integral computing
 -------------------------------------------------------
 OpenMP Integral computing Module                
 Release: version 1.0, May 2013, Q-Chem Inc. Pittsburgh 
 -------------------------------------------------------
 A restricted SCF calculation will be
 performed using DIIS
 SCF converges when DIIS error is below 1.0e-08
 ---------------------------------------
  Cycle       Energy         DIIS error
 ---------------------------------------
    1      -7.5970506261      7.29e-02  
    2      -7.8431668910      2.40e-02  
    3      -7.8507865039      5.50e-03  
    4      -7.8517421811      2.10e-03  
    5      -7.8519536676      8.27e-05  
    6      -7.8519538548      1.16e-05  
    7      -7.8519538579      5.06e-07  
    8      -7.8519538579      4.98e-08  
    9      -7.8519538579      1.47e-09  Convergence criterion met
 ---------------------------------------
 SCF time:   CPU 1.01s  wall 0.00s 
 SCF   energy in the final basis set =       -7.8519538579
 Total energy in the final basis set =       -7.8519538579


 ------------------------------------------------------------------------------

   CCMAN2: suite of methods based on coupled cluster
           and equation of motion theories.

   Components:
   * libvmm-1.3-trunk
     by Evgeny Epifanovsky, Ilya Kaliman.
   * libtensor-2.5-trunk
     by Evgeny Epifanovsky, Michael Wormit, Dmitry Zuev, Sam Manzer, 
        Ilya Kaliman.
   * libcc-2.5-trunk
     by Evgeny Epifanovsky, Arik Landau, Tomasz Kus, Kirill Khistyaev, 
        Dmitry Zuev, Prashant Manohar, Xintian Feng, Anna Krylov, 
        Matthew Goldey, Alec White, Thomas Jagau, Kaushik Nanda, 
        Anastasia Gunina, Alexander Kunitsa, Joonho Lee.

   CCMAN original authors:
   Anna I. Krylov, C. David Sherrill, Steven R. Gwaltney,
   Edward F. C. Byrd (2000)
   Sergey V. Levchenko, Lyudmila V. Slipchenko, Tao Wang,
   Ana-Maria C. Cristian (2003)
   Piotr A. Pieniazek, C. Melania Oana, Evgeny Epifanovsky (2007)
   Prashant Manohar (2009)

 ------------------------------------------------------------------------------


 Allocating and initializing 1808MB of RAM...
 Calculation will run on 20 cores.


 Occupation and symmetry of molecular orbitals

 Point group: C1 (1 irreducible representation).

                           A     All 
 -------------------------------------
 All molecular orbitals:
  - Alpha                  6     6   
  - Beta                   6     6   
 -------------------------------------
 Alpha orbitals:
  - Frozen occupied        0     0   
  - Active occupied        2     2   
  - Active virtual         4     4   
  - Frozen virtual         0     0   
 -------------------------------------
 Beta orbitals:
  - Frozen occupied        0     0   
  - Active occupied        2     2   
  - Active virtual         4     4   
  - Frozen virtual         0     0   
 -------------------------------------

 Import integrals:   CPU 0.00 s  wall 0.00 s

 Import integrals:   CPU 0.09 s  wall 0.02 s

 Run QIS:   CPU 0.01 s  wall 0.01 s

 MP2 amplitudes:   CPU 0.00 s  wall 0.00 s

Running a double precision version
           CCSD T amplitudes will be solved using DIIS.

           Start     Size      MaxIter   EConv     TConv     
           3         7         100       1.00e-06  1.00e-04  
 ------------------------------------------------------------------------------
           Energy (a.u.)   Ediff      Tdiff       Comment
 ------------------------------------------------------------------------------
            -7.86328617                           
     1      -7.86691954   3.63e-03   1.14e-01     
     2      -7.86819629   1.28e-03   3.30e-02     
     3      -7.86867876   4.82e-04   1.09e-02     
     4      -7.86904489   3.66e-04   7.52e-03     Switched to DIIS steps.
     5      -7.86912624   8.14e-05   4.49e-03     
     6      -7.86913259   6.35e-06   5.67e-04     
     7      -7.86913265   6.44e-08   5.16e-05     
 ------------------------------------------------------------------------------
            -7.86913265                           CCSD T converged.

End of double precision
 SCF energy                 = -7.85195386
 MP2 energy                 = -7.86328617
 CCSD correlation energy    = -0.01717879
 CCSD total energy          = -7.86913265

 CCSD  T1^2 = 0.0021  T2^2 = 0.0171  Leading amplitudes:

 Amplitude    Orbitals with energies
 -0.0324062644       2 (A) A                   ->    3 (A) A                    
                    -0.3078                          0.0797                     
 -0.0324062644       2 (A) B                   ->    3 (A) B                    
                    -0.3078                          0.0797                     
 -0.0016920780       2 (A) A                   ->    6 (A) A                    
                    -0.3078                          0.6134                     
 -0.0016920780       2 (A) B                   ->    6 (A) B                    
                    -0.3078                          0.6134                     

 Amplitude    Orbitals with energies
 -0.0988151329       2 (A) A       2 (A) B     ->    6 (A) A       6 (A) B      
                    -0.3078       -0.3078            0.6134        0.6134       
  0.0988151329       2 (A) A       2 (A) B     ->    6 (A) B       6 (A) A      
                    -0.3078       -0.3078            0.6134        0.6134       
  0.0988151329       2 (A) B       2 (A) A     ->    6 (A) A       6 (A) B      
                    -0.3078       -0.3078            0.6134        0.6134       
 -0.0988151329       2 (A) B       2 (A) A     ->    6 (A) B       6 (A) A      
                    -0.3078       -0.3078            0.6134        0.6134       

 Computing CCSD intermediates for later calculations in double precision
 Finished.

Running a double precision version
           CCSD Lambda amplitudes will be solved using DIIS.
           Start     Size      MaxIter   EConv     LConv     
           3         7         100       1.00e-06  1.00e-04  
 ------------------------------------------------------------------------------
            Enorm      Ldiff       Comment
 ------------------------------------------------------------------------------
     1     4.22e-03   3.36e-03     
     2     1.19e-03   1.08e-03     
     3     5.47e-04   4.55e-04     
     4     2.33e-04   3.44e-04     Switched to DIIS steps.
     5     4.22e-05   1.93e-04     
     6     7.60e-06   2.86e-05     
     7     1.00e-06   2.20e-07     
     8     1.11e-07   2.29e-07     
 ------------------------------------------------------------------------------
                                   CCSD Lambda converged.

 Computing density matrices in double precision...
 Computing density matrices... Done.
 Reference state properties
 Dipole moment (a.u.): 1.833586 (X 0.000000, Y 0.000000, Z -1.833586)
 R-squared (a.u.): 16.454937 (XX 3.943842, YY 3.943842, ZZ 8.567253)
 Gauge origin (a.u.): (0.000000, 0.000000, 0.000000)
 Angular momentum (a.u.) against gauge origin: 
 (X 0.000000i, Y 0.000000i, Z 0.000000i)
 Traces of the OPDMs: Tr(AA) 2.000000, Tr(BB) 2.000000
 Density matrix was written to a file for further analysis.

 CCSD calculation:   CPU 0.57 s  wall 0.38 s

        Solving for EOMEE-CCSD A singlet states.

Running a double precision version
        EOMEE-CCSD/MP2 right amplitudes will be solved using Davidson.
        Amplitudes will be solved using standard  algorithm.
     Hard-coded thresholds: 
     LinDepThresh=1.00e-15  NormThresh=1.00e-06  ReorthogonThresh=1.00e-02

      Roots     MaxVec    MaxIter   Precond   Conv      Shift    
      3         120       60        1         1.00e-05  0.00e+00  
 ------------------------------------------------------------------------------
      Iter ConvRoots NVecs ResNorm Current eigenvalues (eV)
 ------------------------------------------------------------------------------
      0    0      3     3.25e-02   5.3111   6.9208   6.9208   
      1    0      6     1.83e-02   4.1858   5.6038   5.6038   
      2    0      9     6.97e-04   3.9545   5.4332   5.4332   
      3    0      12    5.85e-05   3.9479   5.4327   5.4327   
      4    3      15    1.06e-06   3.9464*  5.4335*  5.4335*  

     Davidson procedure converged

 EOMEE transition 1/A
 Total energy = -7.72410347 a.u.  Excitation energy = 3.94644475 eV.
 R0^2 = 0.0036  R1^2 = 0.9070  R2^2 = 0.0930  Res^2 = 2.63e-06
 Conv-d = yes

 Amplitude    Transitions between orbitals
 -0.6730580646       2 (A) A                   ->    3 (A) A                    
 -0.6730580646       2 (A) B                   ->    3 (A) B                    
 -0.0216565333       2 (A) A                   ->    6 (A) A                    
 -0.0216565333       2 (A) B                   ->    6 (A) B                    
  0.0044876738       1 (A) A                   ->    3 (A) A                    
  0.0044876738       1 (A) B                   ->    3 (A) B                    
  0.0016807562       1 (A) A                   ->    6 (A) A                    
  0.0016807562       1 (A) B                   ->    6 (A) B                    
 -0.2072009996       2 (A) A       2 (A) B     ->    3 (A) A       3 (A) B      
  0.2072009996       2 (A) A       2 (A) B     ->    3 (A) B       3 (A) A      
  0.2072009996       2 (A) B       2 (A) A     ->    3 (A) A       3 (A) B      
 -0.2072009996       2 (A) B       2 (A) A     ->    3 (A) B       3 (A) A      
  0.1539096331       2 (A) A       2 (A) B     ->    3 (A) A       6 (A) B      
  0.1539096331       2 (A) A       2 (A) B     ->    6 (A) A       3 (A) B      
 -0.1539096331       2 (A) A       2 (A) B     ->    6 (A) B       3 (A) A      
 -0.1539096331       2 (A) A       2 (A) B     ->    3 (A) B       6 (A) A      
 -0.1539096331       2 (A) B       2 (A) A     ->    3 (A) A       6 (A) B      
 -0.1539096331       2 (A) B       2 (A) A     ->    6 (A) A       3 (A) B      
  0.1539096331       2 (A) B       2 (A) A     ->    3 (A) B       6 (A) A      
  0.1539096331       2 (A) B       2 (A) A     ->    6 (A) B       3 (A) A      
  0.0346103006       2 (A) A       2 (A) B     ->    6 (A) A       6 (A) B      
 -0.0346103006       2 (A) A       2 (A) B     ->    6 (A) B       6 (A) A      
 -0.0346103006       2 (A) B       2 (A) A     ->    6 (A) A       6 (A) B      
  0.0346103006       2 (A) B       2 (A) A     ->    6 (A) B       6 (A) A      
 -0.0259176142       2 (A) A       2 (A) B     ->    5 (A) A       5 (A) B      
  0.0259176142       2 (A) A       2 (A) B     ->    5 (A) B       5 (A) A      
  0.0259176142       2 (A) B       2 (A) A     ->    5 (A) A       5 (A) B      
 -0.0259176142       2 (A) B       2 (A) A     ->    5 (A) B       5 (A) A      
 -0.0259176141       2 (A) A       2 (A) B     ->    4 (A) A       4 (A) B      
  0.0259176141       2 (A) A       2 (A) B     ->    4 (A) B       4 (A) A      
  0.0259176141       2 (A) B       2 (A) A     ->    4 (A) A       4 (A) B      
 -0.0259176141       2 (A) B       2 (A) A     ->    4 (A) B       4 (A) A      
 -0.0055778301       1 (A) A       2 (A) B     ->    3 (A) A       3 (A) B      
 -0.0055778301       2 (A) A       1 (A) B     ->    3 (A) A       3 (A) B      
  0.0055778301       1 (A) A       2 (A) B     ->    3 (A) B       3 (A) A      
  0.0055778301       2 (A) A       1 (A) B     ->    3 (A) B       3 (A) A      
  0.0055778301       2 (A) B       1 (A) A     ->    3 (A) A       3 (A) B      
  0.0055778301       1 (A) B       2 (A) A     ->    3 (A) A       3 (A) B      
 -0.0055778301       1 (A) B       2 (A) A     ->    3 (A) B       3 (A) A      
 -0.0055778301       2 (A) B       1 (A) A     ->    3 (A) B       3 (A) A      
  0.0039599650       1 (A) A       1 (A) B     ->    3 (A) A       3 (A) B      
 -0.0039599650       1 (A) A       1 (A) B     ->    3 (A) B       3 (A) A      
 -0.0039599650       1 (A) B       1 (A) A     ->    3 (A) A       3 (A) B      
  0.0039599650       1 (A) B       1 (A) A     ->    3 (A) B       3 (A) A      
  0.0033869667       1 (A) A       2 (A) A     ->    3 (A) A       6 (A) A      
 -0.0033869667       1 (A) A       2 (A) A     ->    6 (A) A       3 (A) A      
 -0.0033869667       2 (A) A       1 (A) A     ->    3 (A) A       6 (A) A      
  0.0033869667       2 (A) A       1 (A) A     ->    6 (A) A       3 (A) A      
  0.0033869667       1 (A) B       2 (A) B     ->    3 (A) B       6 (A) B      
 -0.0033869667       1 (A) B       2 (A) B     ->    6 (A) B       3 (A) B      
 -0.0033869667       2 (A) B       1 (A) B     ->    3 (A) B       6 (A) B      
  0.0033869667       2 (A) B       1 (A) B     ->    6 (A) B       3 (A) B      
 -0.0031847454       1 (A) A       2 (A) B     ->    6 (A) A       3 (A) B      
 -0.0031847454       2 (A) A       1 (A) B     ->    3 (A) A       6 (A) B      
  0.0031847454       1 (A) A       2 (A) B     ->    3 (A) B       6 (A) A      
  0.0031847454       2 (A) A       1 (A) B     ->    6 (A) B       3 (A) A      
  0.0031847454       2 (A) B       1 (A) A     ->    6 (A) A       3 (A) B      
  0.0031847454       1 (A) B       2 (A) A     ->    3 (A) A       6 (A) B      
 -0.0031847454       1 (A) B       2 (A) A     ->    6 (A) B       3 (A) A      
 -0.0031847454       2 (A) B       1 (A) A     ->    3 (A) B       6 (A) A      
 -0.0025290944       1 (A) A       2 (A) B     ->    5 (A) A       5 (A) B      
 -0.0025290944       2 (A) A       1 (A) B     ->    5 (A) A       5 (A) B      
  0.0025290944       1 (A) A       2 (A) B     ->    5 (A) B       5 (A) A      
  0.0025290944       2 (A) A       1 (A) B     ->    5 (A) B       5 (A) A      
  0.0025290944       2 (A) B       1 (A) A     ->    5 (A) A       5 (A) B      
  0.0025290944       1 (A) B       2 (A) A     ->    5 (A) A       5 (A) B      
 -0.0025290944       1 (A) B       2 (A) A     ->    5 (A) B       5 (A) A      
 -0.0025290944       2 (A) B       1 (A) A     ->    5 (A) B       5 (A) A      
 -0.0025290944       1 (A) A       2 (A) B     ->    4 (A) A       4 (A) B      
 -0.0025290944       2 (A) A       1 (A) B     ->    4 (A) A       4 (A) B      
  0.0025290944       1 (A) A       2 (A) B     ->    4 (A) B       4 (A) A      
  0.0025290944       2 (A) A       1 (A) B     ->    4 (A) B       4 (A) A      
  0.0025290944       2 (A) B       1 (A) A     ->    4 (A) A       4 (A) B      
  0.0025290944       1 (A) B       2 (A) A     ->    4 (A) A       4 (A) B      
 -0.0025290944       1 (A) B       2 (A) A     ->    4 (A) B       4 (A) A      
 -0.0025290944       2 (A) B       1 (A) A     ->    4 (A) B       4 (A) A      
 -0.0012006431       1 (A) A       2 (A) B     ->    6 (A) A       6 (A) B      
 -0.0012006431       2 (A) A       1 (A) B     ->    6 (A) A       6 (A) B      
  0.0012006431       1 (A) A       2 (A) B     ->    6 (A) B       6 (A) A      
  0.0012006431       2 (A) A       1 (A) B     ->    6 (A) B       6 (A) A      
  0.0012006431       2 (A) B       1 (A) A     ->    6 (A) A       6 (A) B      
  0.0012006431       1 (A) B       2 (A) A     ->    6 (A) A       6 (A) B      
 -0.0012006431       1 (A) B       2 (A) A     ->    6 (A) B       6 (A) A      
 -0.0012006431       2 (A) B       1 (A) A     ->    6 (A) B       6 (A) A      
 -0.0010081118       1 (A) A       1 (A) B     ->    3 (A) A       6 (A) B      
 -0.0010081118       1 (A) A       1 (A) B     ->    6 (A) A       3 (A) B      
  0.0010081118       1 (A) A       1 (A) B     ->    6 (A) B       3 (A) A      
  0.0010081118       1 (A) A       1 (A) B     ->    3 (A) B       6 (A) A      
  0.0010081118       1 (A) B       1 (A) A     ->    3 (A) A       6 (A) B      
  0.0010081118       1 (A) B       1 (A) A     ->    6 (A) A       3 (A) B      
 -0.0010081118       1 (A) B       1 (A) A     ->    3 (A) B       6 (A) A      
 -0.0010081118       1 (A) B       1 (A) A     ->    6 (A) B       3 (A) A      
 -0.0003178680       1 (A) A       1 (A) B     ->    6 (A) A       6 (A) B      
  0.0003178680       1 (A) A       1 (A) B     ->    6 (A) B       6 (A) A      
  0.0003178680       1 (A) B       1 (A) A     ->    6 (A) A       6 (A) B      
 -0.0003178680       1 (A) B       1 (A) A     ->    6 (A) B       6 (A) A      
  0.0001917087       1 (A) A       2 (A) B     ->    3 (A) A       6 (A) B      
  0.0001917087       2 (A) A       1 (A) B     ->    6 (A) A       3 (A) B      
 -0.0001917087       1 (A) A       2 (A) B     ->    6 (A) B       3 (A) A      
 -0.0001917087       2 (A) A       1 (A) B     ->    3 (A) B       6 (A) A      
 -0.0001917087       2 (A) B       1 (A) A     ->    3 (A) A       6 (A) B      
 -0.0001917087       1 (A) B       2 (A) A     ->    6 (A) A       3 (A) B      
  0.0001917087       1 (A) B       2 (A) A     ->    3 (A) B       6 (A) A      
  0.0001917087       2 (A) B       1 (A) A     ->    6 (A) B       3 (A) A      
 -0.0000769888       1 (A) A       1 (A) B     ->    4 (A) A       4 (A) B      
  0.0000769888       1 (A) A       1 (A) B     ->    4 (A) B       4 (A) A      
  0.0000769888       1 (A) B       1 (A) A     ->    4 (A) A       4 (A) B      
 -0.0000769888       1 (A) B       1 (A) A     ->    4 (A) B       4 (A) A      
 -0.0000769888       1 (A) A       1 (A) B     ->    5 (A) A       5 (A) B      
  0.0000769888       1 (A) A       1 (A) B     ->    5 (A) B       5 (A) A      
  0.0000769888       1 (A) B       1 (A) A     ->    5 (A) A       5 (A) B      
 -0.0000769888       1 (A) B       1 (A) A     ->    5 (A) B       5 (A) A      

              Summary of significant orbitals:

               Number  Type             Irrep      Energy
               1       Occ  Alpha       1 (A)     -2.3467
               2       Occ  Alpha       2 (A)     -0.3078
               1       Occ  Beta        1 (A)     -2.3467
               2       Occ  Beta        2 (A)     -0.3078
               3       Vir  Alpha       3 (A)      0.0797
               4       Vir  Alpha       4 (A)      0.1625
               5       Vir  Alpha       5 (A)      0.1625
               6       Vir  Alpha       6 (A)      0.6134
               3       Vir  Beta        3 (A)      0.0797
               4       Vir  Beta        4 (A)      0.1625
               5       Vir  Beta        5 (A)      0.1625
               6       Vir  Beta        6 (A)      0.6134


 EOMEE transition 2/A
 Total energy = -7.66945388 a.u.  Excitation energy = 5.43353575 eV.
 R0^2 = 0.0000  R1^2 = 0.9072  R2^2 = 0.0928  Res^2 = 2.71e-07
 Conv-d = yes

 Amplitude    Transitions between orbitals
 -0.6734673589       2 (A) A                   ->    5 (A) A                    
 -0.6734673589       2 (A) B                   ->    5 (A) B                    
  0.0066133739       1 (A) A                   ->    5 (A) A                    
  0.0066133739       1 (A) B                   ->    5 (A) B                    
  0.1728396044       2 (A) A       2 (A) B     ->    5 (A) A       6 (A) B      
  0.1728396044       2 (A) A       2 (A) B     ->    6 (A) A       5 (A) B      
 -0.1728396044       2 (A) A       2 (A) B     ->    6 (A) B       5 (A) A      
 -0.1728396044       2 (A) A       2 (A) B     ->    5 (A) B       6 (A) A      
 -0.1728396044       2 (A) B       2 (A) A     ->    5 (A) A       6 (A) B      
 -0.1728396044       2 (A) B       2 (A) A     ->    6 (A) A       5 (A) B      
  0.1728396044       2 (A) B       2 (A) A     ->    5 (A) B       6 (A) A      
  0.1728396044       2 (A) B       2 (A) A     ->    6 (A) B       5 (A) A      
 -0.1283826826       2 (A) A       2 (A) B     ->    3 (A) A       5 (A) B      
 -0.1283826826       2 (A) A       2 (A) B     ->    5 (A) A       3 (A) B      
  0.1283826826       2 (A) A       2 (A) B     ->    5 (A) B       3 (A) A      
  0.1283826826       2 (A) A       2 (A) B     ->    3 (A) B       5 (A) A      
  0.1283826826       2 (A) B       2 (A) A     ->    3 (A) A       5 (A) B      
  0.1283826826       2 (A) B       2 (A) A     ->    5 (A) A       3 (A) B      
 -0.1283826826       2 (A) B       2 (A) A     ->    3 (A) B       5 (A) A      
 -0.1283826826       2 (A) B       2 (A) A     ->    5 (A) B       3 (A) A      
  0.0033353156       1 (A) A       2 (A) A     ->    5 (A) A       6 (A) A      
 -0.0033353156       1 (A) A       2 (A) A     ->    6 (A) A       5 (A) A      
 -0.0033353156       2 (A) A       1 (A) A     ->    5 (A) A       6 (A) A      
  0.0033353156       2 (A) A       1 (A) A     ->    6 (A) A       5 (A) A      
  0.0033353156       1 (A) B       2 (A) B     ->    5 (A) B       6 (A) B      
 -0.0033353156       1 (A) B       2 (A) B     ->    6 (A) B       5 (A) B      
 -0.0033353156       2 (A) B       1 (A) B     ->    5 (A) B       6 (A) B      
  0.0033353156       2 (A) B       1 (A) B     ->    6 (A) B       5 (A) B      
 -0.0031569914       1 (A) A       2 (A) B     ->    3 (A) A       5 (A) B      
 -0.0031569914       2 (A) A       1 (A) B     ->    5 (A) A       3 (A) B      
  0.0031569914       1 (A) A       2 (A) B     ->    5 (A) B       3 (A) A      
  0.0031569914       2 (A) A       1 (A) B     ->    3 (A) B       5 (A) A      
  0.0031569914       2 (A) B       1 (A) A     ->    3 (A) A       5 (A) B      
  0.0031569914       1 (A) B       2 (A) A     ->    5 (A) A       3 (A) B      
 -0.0031569914       1 (A) B       2 (A) A     ->    3 (A) B       5 (A) A      
 -0.0031569914       2 (A) B       1 (A) A     ->    5 (A) B       3 (A) A      
 -0.0028987738       1 (A) A       2 (A) B     ->    5 (A) A       3 (A) B      
 -0.0028987738       2 (A) A       1 (A) B     ->    3 (A) A       5 (A) B      
  0.0028987738       1 (A) A       2 (A) B     ->    3 (A) B       5 (A) A      
  0.0028987738       2 (A) A       1 (A) B     ->    5 (A) B       3 (A) A      
  0.0028987738       2 (A) B       1 (A) A     ->    5 (A) A       3 (A) B      
  0.0028987738       1 (A) B       2 (A) A     ->    3 (A) A       5 (A) B      
 -0.0028987738       1 (A) B       2 (A) A     ->    5 (A) B       3 (A) A      
 -0.0028987738       2 (A) B       1 (A) A     ->    3 (A) B       5 (A) A      
  0.0026006190       1 (A) A       2 (A) B     ->    5 (A) A       6 (A) B      
  0.0026006190       2 (A) A       1 (A) B     ->    6 (A) A       5 (A) B      
 -0.0026006190       1 (A) A       2 (A) B     ->    6 (A) B       5 (A) A      
 -0.0026006190       2 (A) A       1 (A) B     ->    5 (A) B       6 (A) A      
 -0.0026006190       2 (A) B       1 (A) A     ->    5 (A) A       6 (A) B      
 -0.0026006190       1 (A) B       2 (A) A     ->    6 (A) A       5 (A) B      
  0.0026006190       1 (A) B       2 (A) A     ->    5 (A) B       6 (A) A      
  0.0026006190       2 (A) B       1 (A) A     ->    6 (A) B       5 (A) A      
  0.0020879531       1 (A) A       1 (A) B     ->    3 (A) A       5 (A) B      
  0.0020879531       1 (A) A       1 (A) B     ->    5 (A) A       3 (A) B      
 -0.0020879531       1 (A) A       1 (A) B     ->    5 (A) B       3 (A) A      
 -0.0020879531       1 (A) A       1 (A) B     ->    3 (A) B       5 (A) A      
 -0.0020879531       1 (A) B       1 (A) A     ->    3 (A) A       5 (A) B      
 -0.0020879531       1 (A) B       1 (A) A     ->    5 (A) A       3 (A) B      
  0.0020879531       1 (A) B       1 (A) A     ->    3 (A) B       5 (A) A      
  0.0020879531       1 (A) B       1 (A) A     ->    5 (A) B       3 (A) A      
 -0.0010597822       1 (A) A       1 (A) B     ->    5 (A) A       6 (A) B      
 -0.0010597822       1 (A) A       1 (A) B     ->    6 (A) A       5 (A) B      
  0.0010597822       1 (A) A       1 (A) B     ->    6 (A) B       5 (A) A      
  0.0010597822       1 (A) A       1 (A) B     ->    5 (A) B       6 (A) A      
  0.0010597822       1 (A) B       1 (A) A     ->    5 (A) A       6 (A) B      
  0.0010597822       1 (A) B       1 (A) A     ->    6 (A) A       5 (A) B      
 -0.0010597822       1 (A) B       1 (A) A     ->    5 (A) B       6 (A) A      
 -0.0010597822       1 (A) B       1 (A) A     ->    6 (A) B       5 (A) A      
 -0.0007283351       1 (A) A       2 (A) B     ->    6 (A) A       5 (A) B      
 -0.0007283351       2 (A) A       1 (A) B     ->    5 (A) A       6 (A) B      
  0.0007283351       1 (A) A       2 (A) B     ->    5 (A) B       6 (A) A      
  0.0007283351       2 (A) A       1 (A) B     ->    6 (A) B       5 (A) A      
  0.0007283351       2 (A) B       1 (A) A     ->    6 (A) A       5 (A) B      
  0.0007283351       1 (A) B       2 (A) A     ->    5 (A) A       6 (A) B      
 -0.0007283351       1 (A) B       2 (A) A     ->    6 (A) B       5 (A) A      
 -0.0007283351       2 (A) B       1 (A) A     ->    5 (A) B       6 (A) A      
 -0.0002598218       1 (A) A       2 (A) A     ->    3 (A) A       5 (A) A      
  0.0002598218       1 (A) A       2 (A) A     ->    5 (A) A       3 (A) A      
  0.0002598218       2 (A) A       1 (A) A     ->    3 (A) A       5 (A) A      
 -0.0002598218       2 (A) A       1 (A) A     ->    5 (A) A       3 (A) A      
 -0.0002598218       1 (A) B       2 (A) B     ->    3 (A) B       5 (A) B      
  0.0002598218       1 (A) B       2 (A) B     ->    5 (A) B       3 (A) B      
  0.0002598218       2 (A) B       1 (A) B     ->    3 (A) B       5 (A) B      
 -0.0002598218       2 (A) B       1 (A) B     ->    5 (A) B       3 (A) B      

              Summary of significant orbitals:

               Number  Type             Irrep      Energy
               1       Occ  Alpha       1 (A)     -2.3467
               2       Occ  Alpha       2 (A)     -0.3078
               1       Occ  Beta        1 (A)     -2.3467
               2       Occ  Beta        2 (A)     -0.3078
               3       Vir  Alpha       3 (A)      0.0797
               5       Vir  Alpha       5 (A)      0.1625
               6       Vir  Alpha       6 (A)      0.6134
               3       Vir  Beta        3 (A)      0.0797
               5       Vir  Beta        5 (A)      0.1625
               6       Vir  Beta        6 (A)      0.6134


 EOMEE transition 3/A
 Total energy = -7.66945388 a.u.  Excitation energy = 5.43353577 eV.
 R0^2 = 0.0000  R1^2 = 0.9072  R2^2 = 0.0928  Res^2 = 2.71e-07
 Conv-d = yes

 Amplitude    Transitions between orbitals
  0.6734673589       2 (A) A                   ->    4 (A) A                    
  0.6734673589       2 (A) B                   ->    4 (A) B                    
 -0.0066133739       1 (A) A                   ->    4 (A) A                    
 -0.0066133739       1 (A) B                   ->    4 (A) B                    
 -0.1728396044       2 (A) A       2 (A) B     ->    4 (A) A       6 (A) B      
 -0.1728396044       2 (A) A       2 (A) B     ->    6 (A) A       4 (A) B      
  0.1728396044       2 (A) A       2 (A) B     ->    6 (A) B       4 (A) A      
  0.1728396044       2 (A) A       2 (A) B     ->    4 (A) B       6 (A) A      
  0.1728396044       2 (A) B       2 (A) A     ->    4 (A) A       6 (A) B      
  0.1728396044       2 (A) B       2 (A) A     ->    6 (A) A       4 (A) B      
 -0.1728396044       2 (A) B       2 (A) A     ->    4 (A) B       6 (A) A      
 -0.1728396044       2 (A) B       2 (A) A     ->    6 (A) B       4 (A) A      
  0.1283826826       2 (A) A       2 (A) B     ->    3 (A) A       4 (A) B      
  0.1283826826       2 (A) A       2 (A) B     ->    4 (A) A       3 (A) B      
 -0.1283826826       2 (A) A       2 (A) B     ->    4 (A) B       3 (A) A      
 -0.1283826826       2 (A) A       2 (A) B     ->    3 (A) B       4 (A) A      
 -0.1283826826       2 (A) B       2 (A) A     ->    3 (A) A       4 (A) B      
 -0.1283826826       2 (A) B       2 (A) A     ->    4 (A) A       3 (A) B      
  0.1283826826       2 (A) B       2 (A) A     ->    3 (A) B       4 (A) A      
  0.1283826826       2 (A) B       2 (A) A     ->    4 (A) B       3 (A) A      
 -0.0033353156       1 (A) A       2 (A) A     ->    4 (A) A       6 (A) A      
  0.0033353156       1 (A) A       2 (A) A     ->    6 (A) A       4 (A) A      
  0.0033353156       2 (A) A       1 (A) A     ->    4 (A) A       6 (A) A      
 -0.0033353156       2 (A) A       1 (A) A     ->    6 (A) A       4 (A) A      
 -0.0033353156       1 (A) B       2 (A) B     ->    4 (A) B       6 (A) B      
  0.0033353156       1 (A) B       2 (A) B     ->    6 (A) B       4 (A) B      
  0.0033353156       2 (A) B       1 (A) B     ->    4 (A) B       6 (A) B      
 -0.0033353156       2 (A) B       1 (A) B     ->    6 (A) B       4 (A) B      
  0.0031569914       1 (A) A       2 (A) B     ->    3 (A) A       4 (A) B      
  0.0031569914       2 (A) A       1 (A) B     ->    4 (A) A       3 (A) B      
 -0.0031569914       1 (A) A       2 (A) B     ->    4 (A) B       3 (A) A      
 -0.0031569914       2 (A) A       1 (A) B     ->    3 (A) B       4 (A) A      
 -0.0031569914       2 (A) B       1 (A) A     ->    3 (A) A       4 (A) B      
 -0.0031569914       1 (A) B       2 (A) A     ->    4 (A) A       3 (A) B      
  0.0031569914       1 (A) B       2 (A) A     ->    3 (A) B       4 (A) A      
  0.0031569914       2 (A) B       1 (A) A     ->    4 (A) B       3 (A) A      
  0.0028987738       1 (A) A       2 (A) B     ->    4 (A) A       3 (A) B      
  0.0028987738       2 (A) A       1 (A) B     ->    3 (A) A       4 (A) B      
 -0.0028987738       1 (A) A       2 (A) B     ->    3 (A) B       4 (A) A      
 -0.0028987738       2 (A) A       1 (A) B     ->    4 (A) B       3 (A) A      
 -0.0028987738       2 (A) B       1 (A) A     ->    4 (A) A       3 (A) B      
 -0.0028987738       1 (A) B       2 (A) A     ->    3 (A) A       4 (A) B      
  0.0028987738       1 (A) B       2 (A) A     ->    4 (A) B       3 (A) A      
  0.0028987738       2 (A) B       1 (A) A     ->    3 (A) B       4 (A) A      
 -0.0026006190       1 (A) A       2 (A) B     ->    4 (A) A       6 (A) B      
 -0.0026006190       2 (A) A       1 (A) B     ->    6 (A) A       4 (A) B      
  0.0026006190       1 (A) A       2 (A) B     ->    6 (A) B       4 (A) A      
  0.0026006190       2 (A) A       1 (A) B     ->    4 (A) B       6 (A) A      
  0.0026006190       2 (A) B       1 (A) A     ->    4 (A) A       6 (A) B      
  0.0026006190       1 (A) B       2 (A) A     ->    6 (A) A       4 (A) B      
 -0.0026006190       1 (A) B       2 (A) A     ->    4 (A) B       6 (A) A      
 -0.0026006190       2 (A) B       1 (A) A     ->    6 (A) B       4 (A) A      
 -0.0020879531       1 (A) A       1 (A) B     ->    3 (A) A       4 (A) B      
 -0.0020879531       1 (A) A       1 (A) B     ->    4 (A) A       3 (A) B      
  0.0020879531       1 (A) A       1 (A) B     ->    4 (A) B       3 (A) A      
  0.0020879531       1 (A) A       1 (A) B     ->    3 (A) B       4 (A) A      
  0.0020879531       1 (A) B       1 (A) A     ->    3 (A) A       4 (A) B      
  0.0020879531       1 (A) B       1 (A) A     ->    4 (A) A       3 (A) B      
 -0.0020879531       1 (A) B       1 (A) A     ->    3 (A) B       4 (A) A      
 -0.0020879531       1 (A) B       1 (A) A     ->    4 (A) B       3 (A) A      
  0.0010597822       1 (A) A       1 (A) B     ->    4 (A) A       6 (A) B      
  0.0010597822       1 (A) A       1 (A) B     ->    6 (A) A       4 (A) B      
 -0.0010597822       1 (A) A       1 (A) B     ->    6 (A) B       4 (A) A      
 -0.0010597822       1 (A) A       1 (A) B     ->    4 (A) B       6 (A) A      
 -0.0010597822       1 (A) B       1 (A) A     ->    4 (A) A       6 (A) B      
 -0.0010597822       1 (A) B       1 (A) A     ->    6 (A) A       4 (A) B      
  0.0010597822       1 (A) B       1 (A) A     ->    4 (A) B       6 (A) A      
  0.0010597822       1 (A) B       1 (A) A     ->    6 (A) B       4 (A) A      
  0.0007283351       1 (A) A       2 (A) B     ->    6 (A) A       4 (A) B      
  0.0007283351       2 (A) A       1 (A) B     ->    4 (A) A       6 (A) B      
 -0.0007283351       1 (A) A       2 (A) B     ->    4 (A) B       6 (A) A      
 -0.0007283351       2 (A) A       1 (A) B     ->    6 (A) B       4 (A) A      
 -0.0007283351       2 (A) B       1 (A) A     ->    6 (A) A       4 (A) B      
 -0.0007283351       1 (A) B       2 (A) A     ->    4 (A) A       6 (A) B      
  0.0007283351       1 (A) B       2 (A) A     ->    6 (A) B       4 (A) A      
  0.0007283351       2 (A) B       1 (A) A     ->    4 (A) B       6 (A) A      
  0.0002598218       1 (A) A       2 (A) A     ->    3 (A) A       4 (A) A      
 -0.0002598218       1 (A) A       2 (A) A     ->    4 (A) A       3 (A) A      
 -0.0002598218       2 (A) A       1 (A) A     ->    3 (A) A       4 (A) A      
  0.0002598218       2 (A) A       1 (A) A     ->    4 (A) A       3 (A) A      
  0.0002598218       1 (A) B       2 (A) B     ->    3 (A) B       4 (A) B      
 -0.0002598218       1 (A) B       2 (A) B     ->    4 (A) B       3 (A) B      
 -0.0002598218       2 (A) B       1 (A) B     ->    3 (A) B       4 (A) B      
  0.0002598218       2 (A) B       1 (A) B     ->    4 (A) B       3 (A) B      

              Summary of significant orbitals:

               Number  Type             Irrep      Energy
               1       Occ  Alpha       1 (A)     -2.3467
               2       Occ  Alpha       2 (A)     -0.3078
               1       Occ  Beta        1 (A)     -2.3467
               2       Occ  Beta        2 (A)     -0.3078
               3       Vir  Alpha       3 (A)      0.0797
               4       Vir  Alpha       4 (A)      0.1625
               6       Vir  Alpha       6 (A)      0.6134
               3       Vir  Beta        3 (A)      0.0797
               4       Vir  Beta        4 (A)      0.1625
               6       Vir  Beta        6 (A)      0.6134


 EEs and amplitudes of EOMEE has be exported to fchk file
Running a double precision version
      EOM-CCSD/MP2 left amplitudes will be solved using Davidson.
        Amplitudes will be solved using MOM  algorithm.
     Hard-coded thresholds: 
     LinDepThresh=1.00e-15  NormThresh=1.00e-06  ReorthogonThresh=1.00e-02

      Roots     MaxVec    MaxIter   Precond   Conv      Shift    
      3         120       60        1         1.00e-05  0.00e+00  
 ------------------------------------------------------------------------------
      Iter ConvRoots NVecs ResNorm Current eigenvalues (eV)
 ------------------------------------------------------------------------------
      0    0      3     4.63e-04   3.9464   5.4335   5.4335   
      1    0      6     1.53e-04   3.9457   5.4336   5.4336   
      2    2      9     8.40e-06   3.9457   5.4336*  5.4336*  
      3    3      10    1.78e-06   3.9457*  5.4336*  5.4336*  

     Davidson procedure converged

biorthogonolize_left_to_right(): degenerate block detected, ndeg=2

 Excited state properties for  EOMEE-CCSD transition 1/A
 Dipole moment (a.u.): 1.699403 (X 0.000000, Y 0.000000, Z 1.699403)
 R-squared (a.u.): 21.850911 (XX 4.311449, YY 4.311449, ZZ 13.228012)
 Gauge origin (a.u.): (0.000000, 0.000000, 0.000000)
 Angular momentum (a.u.) against gauge origin: 
 (X 0.000000i, Y 0.000000i, Z 0.000000i)
 Traces of the OPDMs: Tr(AA) 2.000000, Tr(BB) 2.000000

 Excited state properties for  EOMEE-CCSD transition 2/A
 Dipole moment (a.u.): 0.049303 (X 0.000000, Y 0.000000, Z 0.049303)
 R-squared (a.u.): 19.596477 (XX 5.856991, YY 5.857019, ZZ 7.882468)
 Gauge origin (a.u.): (0.000000, 0.000000, 0.000000)
 Angular momentum (a.u.) against gauge origin: 
 (X 0.000000i, Y 0.000000i, Z 0.000000i)
 Traces of the OPDMs: Tr(AA) 2.000000, Tr(BB) 2.000000

 Excited state properties for  EOMEE-CCSD transition 3/A
 Dipole moment (a.u.): 0.049303 (X 0.000000, Y 0.000000, Z 0.049303)
 R-squared (a.u.): 19.596477 (XX 5.857019, YY 5.856991, ZZ 7.882468)
 Gauge origin (a.u.): (0.000000, 0.000000, 0.000000)
 Angular momentum (a.u.) against gauge origin: 
 (X 0.000000i, Y 0.000000i, Z 0.000000i)
 Traces of the OPDMs: Tr(AA) 2.000000, Tr(BB) 2.000000

        Solving for EOMEE-CCSD A triplet states.

Running a double precision version
        EOMEE-CCSD/MP2 right amplitudes will be solved using Davidson.
        Amplitudes will be solved using standard  algorithm.
     Hard-coded thresholds: 
     LinDepThresh=1.00e-15  NormThresh=1.00e-06  ReorthogonThresh=1.00e-02

      Roots     MaxVec    MaxIter   Precond   Conv      Shift    
      3         120       60        1         1.00e-05  0.00e+00  
 ------------------------------------------------------------------------------
      Iter ConvRoots NVecs ResNorm Current eigenvalues (eV)
 ------------------------------------------------------------------------------
      0    0      3     2.00e-02   4.6444   5.5179   5.5179   
      1    0      6     9.88e-03   3.6478   4.8376   4.8376   
      2    0      9     4.49e-04   3.5415   4.7298   4.7298   
      3    0      12    3.66e-05   3.5378   4.7283   4.7283   
      4    3      15    2.57e-07   3.5375*  4.7291*  4.7291*  

     Davidson procedure converged

 EOMEE transition 1/A
 Total energy = -7.73913285 a.u.  Excitation energy = 3.53747455 eV.
 R0^2 = 0.0000  R1^2 = 0.9550  R2^2 = 0.0450  Res^2 = 1.93e-07
 Conv-d = yes

 Amplitude    Transitions between orbitals
  0.6858133649       2 (A) A                   ->    3 (A) A                    
 -0.6858133649       2 (A) B                   ->    3 (A) B                    
 -0.0845097987       2 (A) A                   ->    6 (A) A                    
  0.0845097987       2 (A) B                   ->    6 (A) B                    
 -0.0040797718       1 (A) A                   ->    3 (A) A                    
  0.0040797718       1 (A) B                   ->    3 (A) B                    
 -0.0017105136       1 (A) A                   ->    6 (A) A                    
  0.0017105136       1 (A) B                   ->    6 (A) B                    
 -0.1497333811       2 (A) A       2 (A) B     ->    3 (A) A       6 (A) B      
  0.1497333811       2 (A) A       2 (A) B     ->    6 (A) A       3 (A) B      
  0.1497333811       2 (A) A       2 (A) B     ->    6 (A) B       3 (A) A      
 -0.1497333811       2 (A) A       2 (A) B     ->    3 (A) B       6 (A) A      
  0.1497333811       2 (A) B       2 (A) A     ->    3 (A) A       6 (A) B      
 -0.1497333811       2 (A) B       2 (A) A     ->    6 (A) A       3 (A) B      
  0.1497333811       2 (A) B       2 (A) A     ->    3 (A) B       6 (A) A      
 -0.1497333811       2 (A) B       2 (A) A     ->    6 (A) B       3 (A) A      
 -0.0051108371       1 (A) A       2 (A) B     ->    3 (A) A       3 (A) B      
  0.0051108371       2 (A) A       1 (A) B     ->    3 (A) A       3 (A) B      
  0.0051108371       1 (A) A       2 (A) B     ->    3 (A) B       3 (A) A      
 -0.0051108371       2 (A) A       1 (A) B     ->    3 (A) B       3 (A) A      
  0.0051108371       2 (A) B       1 (A) A     ->    3 (A) A       3 (A) B      
 -0.0051108371       1 (A) B       2 (A) A     ->    3 (A) A       3 (A) B      
  0.0051108371       1 (A) B       2 (A) A     ->    3 (A) B       3 (A) A      
 -0.0051108371       2 (A) B       1 (A) A     ->    3 (A) B       3 (A) A      
 -0.0035723572       1 (A) A       2 (A) B     ->    6 (A) A       3 (A) B      
  0.0035723572       2 (A) A       1 (A) B     ->    3 (A) A       6 (A) B      
  0.0035723572       1 (A) A       2 (A) B     ->    3 (A) B       6 (A) A      
 -0.0035723572       2 (A) A       1 (A) B     ->    6 (A) B       3 (A) A      
  0.0035723572       2 (A) B       1 (A) A     ->    6 (A) A       3 (A) B      
 -0.0035723572       1 (A) B       2 (A) A     ->    3 (A) A       6 (A) B      
  0.0035723572       1 (A) B       2 (A) A     ->    6 (A) B       3 (A) A      
 -0.0035723572       2 (A) B       1 (A) A     ->    3 (A) B       6 (A) A      
 -0.0034411439       1 (A) A       2 (A) A     ->    3 (A) A       6 (A) A      
  0.0034411439       1 (A) A       2 (A) A     ->    6 (A) A       3 (A) A      
  0.0034411439       2 (A) A       1 (A) A     ->    3 (A) A       6 (A) A      
 -0.0034411439       2 (A) A       1 (A) A     ->    6 (A) A       3 (A) A      
  0.0034411439       1 (A) B       2 (A) B     ->    3 (A) B       6 (A) B      
 -0.0034411439       1 (A) B       2 (A) B     ->    6 (A) B       3 (A) B      
 -0.0034411439       2 (A) B       1 (A) B     ->    3 (A) B       6 (A) B      
  0.0034411439       2 (A) B       1 (A) B     ->    6 (A) B       3 (A) B      
 -0.0033430475       1 (A) A       2 (A) B     ->    5 (A) A       5 (A) B      
  0.0033430475       2 (A) A       1 (A) B     ->    5 (A) A       5 (A) B      
  0.0033430475       1 (A) A       2 (A) B     ->    5 (A) B       5 (A) A      
 -0.0033430475       2 (A) A       1 (A) B     ->    5 (A) B       5 (A) A      
  0.0033430475       2 (A) B       1 (A) A     ->    5 (A) A       5 (A) B      
 -0.0033430475       1 (A) B       2 (A) A     ->    5 (A) A       5 (A) B      
  0.0033430475       1 (A) B       2 (A) A     ->    5 (A) B       5 (A) A      
 -0.0033430475       2 (A) B       1 (A) A     ->    5 (A) B       5 (A) A      
 -0.0033430475       1 (A) A       2 (A) B     ->    4 (A) A       4 (A) B      
  0.0033430475       2 (A) A       1 (A) B     ->    4 (A) A       4 (A) B      
  0.0033430475       1 (A) A       2 (A) B     ->    4 (A) B       4 (A) A      
 -0.0033430475       2 (A) A       1 (A) B     ->    4 (A) B       4 (A) A      
  0.0033430475       2 (A) B       1 (A) A     ->    4 (A) A       4 (A) B      
 -0.0033430475       1 (A) B       2 (A) A     ->    4 (A) A       4 (A) B      
  0.0033430475       1 (A) B       2 (A) A     ->    4 (A) B       4 (A) A      
 -0.0033430475       2 (A) B       1 (A) A     ->    4 (A) B       4 (A) A      
 -0.0020804947       1 (A) A       2 (A) B     ->    3 (A) A       6 (A) B      
  0.0020804947       2 (A) A       1 (A) B     ->    6 (A) A       3 (A) B      
  0.0020804947       1 (A) A       2 (A) B     ->    6 (A) B       3 (A) A      
 -0.0020804947       2 (A) A       1 (A) B     ->    3 (A) B       6 (A) A      
  0.0020804947       2 (A) B       1 (A) A     ->    3 (A) A       6 (A) B      
 -0.0020804947       1 (A) B       2 (A) A     ->    6 (A) A       3 (A) B      
  0.0020804947       1 (A) B       2 (A) A     ->    3 (A) B       6 (A) A      
 -0.0020804947       2 (A) B       1 (A) A     ->    6 (A) B       3 (A) A      
  0.0009320927       1 (A) A       1 (A) B     ->    3 (A) A       6 (A) B      
 -0.0009320927       1 (A) A       1 (A) B     ->    6 (A) A       3 (A) B      
 -0.0009320927       1 (A) A       1 (A) B     ->    6 (A) B       3 (A) A      
  0.0009320927       1 (A) A       1 (A) B     ->    3 (A) B       6 (A) A      
 -0.0009320927       1 (A) B       1 (A) A     ->    3 (A) A       6 (A) B      
  0.0009320927       1 (A) B       1 (A) A     ->    6 (A) A       3 (A) B      
 -0.0009320927       1 (A) B       1 (A) A     ->    3 (A) B       6 (A) A      
  0.0009320927       1 (A) B       1 (A) A     ->    6 (A) B       3 (A) A      
 -0.0004400112       1 (A) A       2 (A) B     ->    6 (A) A       6 (A) B      
  0.0004400112       2 (A) A       1 (A) B     ->    6 (A) A       6 (A) B      
  0.0004400112       1 (A) A       2 (A) B     ->    6 (A) B       6 (A) A      
 -0.0004400112       2 (A) A       1 (A) B     ->    6 (A) B       6 (A) A      
  0.0004400112       2 (A) B       1 (A) A     ->    6 (A) A       6 (A) B      
 -0.0004400112       1 (A) B       2 (A) A     ->    6 (A) A       6 (A) B      
  0.0004400112       1 (A) B       2 (A) A     ->    6 (A) B       6 (A) A      
 -0.0004400112       2 (A) B       1 (A) A     ->    6 (A) B       6 (A) A      

              Summary of significant orbitals:

               Number  Type             Irrep      Energy
               1       Occ  Alpha       1 (A)     -2.3467
               2       Occ  Alpha       2 (A)     -0.3078
               1       Occ  Beta        1 (A)     -2.3467
               2       Occ  Beta        2 (A)     -0.3078
               3       Vir  Alpha       3 (A)      0.0797
               4       Vir  Alpha       4 (A)      0.1625
               5       Vir  Alpha       5 (A)      0.1625
               6       Vir  Alpha       6 (A)      0.6134
               3       Vir  Beta        3 (A)      0.0797
               4       Vir  Beta        4 (A)      0.1625
               5       Vir  Beta        5 (A)      0.1625
               6       Vir  Beta        6 (A)      0.6134


 EOMEE transition 2/A
 Total energy = -7.69534148 a.u.  Excitation energy = 4.72909835 eV.
 R0^2 = 0.0000  R1^2 = 0.9449  R2^2 = 0.0551  Res^2 = 2.89e-07
 Conv-d = yes

 Amplitude    Transitions between orbitals
 -0.6873477523       2 (A) A                   ->    5 (A) A                    
  0.6873477523       2 (A) B                   ->    5 (A) B                    
  0.0014565605       1 (A) A                   ->    5 (A) A                    
 -0.0014565605       1 (A) B                   ->    5 (A) B                    
  0.1389673130       2 (A) A       2 (A) B     ->    5 (A) A       6 (A) B      
 -0.1389673130       2 (A) A       2 (A) B     ->    6 (A) A       5 (A) B      
 -0.1389673130       2 (A) A       2 (A) B     ->    6 (A) B       5 (A) A      
  0.1389673130       2 (A) A       2 (A) B     ->    5 (A) B       6 (A) A      
 -0.1389673130       2 (A) B       2 (A) A     ->    5 (A) A       6 (A) B      
  0.1389673130       2 (A) B       2 (A) A     ->    6 (A) A       5 (A) B      
 -0.1389673130       2 (A) B       2 (A) A     ->    5 (A) B       6 (A) A      
  0.1389673130       2 (A) B       2 (A) A     ->    6 (A) B       5 (A) A      
  0.0905024035       2 (A) A       2 (A) B     ->    3 (A) A       5 (A) B      
 -0.0905024035       2 (A) A       2 (A) B     ->    5 (A) A       3 (A) B      
 -0.0905024035       2 (A) A       2 (A) B     ->    5 (A) B       3 (A) A      
  0.0905024035       2 (A) A       2 (A) B     ->    3 (A) B       5 (A) A      
 -0.0905024035       2 (A) B       2 (A) A     ->    3 (A) A       5 (A) B      
  0.0905024035       2 (A) B       2 (A) A     ->    5 (A) A       3 (A) B      
 -0.0905024035       2 (A) B       2 (A) A     ->    3 (A) B       5 (A) A      
  0.0905024035       2 (A) B       2 (A) A     ->    5 (A) B       3 (A) A      
  0.0045388169       1 (A) A       2 (A) A     ->    5 (A) A       6 (A) A      
 -0.0045388169       1 (A) A       2 (A) A     ->    6 (A) A       5 (A) A      
 -0.0045388169       2 (A) A       1 (A) A     ->    5 (A) A       6 (A) A      
  0.0045388169       2 (A) A       1 (A) A     ->    6 (A) A       5 (A) A      
 -0.0045388169       1 (A) B       2 (A) B     ->    5 (A) B       6 (A) B      
  0.0045388169       1 (A) B       2 (A) B     ->    6 (A) B       5 (A) B      
  0.0045388169       2 (A) B       1 (A) B     ->    5 (A) B       6 (A) B      
 -0.0045388169       2 (A) B       1 (A) B     ->    6 (A) B       5 (A) B      
  0.0038480210       1 (A) A       2 (A) B     ->    3 (A) A       5 (A) B      
 -0.0038480210       2 (A) A       1 (A) B     ->    5 (A) A       3 (A) B      
 -0.0038480210       1 (A) A       2 (A) B     ->    5 (A) B       3 (A) A      
  0.0038480210       2 (A) A       1 (A) B     ->    3 (A) B       5 (A) A      
 -0.0038480210       2 (A) B       1 (A) A     ->    3 (A) A       5 (A) B      
  0.0038480210       1 (A) B       2 (A) A     ->    5 (A) A       3 (A) B      
 -0.0038480210       1 (A) B       2 (A) A     ->    3 (A) B       5 (A) A      
  0.0038480210       2 (A) B       1 (A) A     ->    5 (A) B       3 (A) A      
  0.0027217326       1 (A) A       2 (A) B     ->    5 (A) A       3 (A) B      
 -0.0027217326       2 (A) A       1 (A) B     ->    3 (A) A       5 (A) B      
 -0.0027217326       1 (A) A       2 (A) B     ->    3 (A) B       5 (A) A      
  0.0027217326       2 (A) A       1 (A) B     ->    5 (A) B       3 (A) A      
 -0.0027217326       2 (A) B       1 (A) A     ->    5 (A) A       3 (A) B      
  0.0027217326       1 (A) B       2 (A) A     ->    3 (A) A       5 (A) B      
 -0.0027217326       1 (A) B       2 (A) A     ->    5 (A) B       3 (A) A      
  0.0027217326       2 (A) B       1 (A) A     ->    3 (A) B       5 (A) A      
 -0.0019657531       1 (A) A       1 (A) B     ->    3 (A) A       5 (A) B      
  0.0019657531       1 (A) A       1 (A) B     ->    5 (A) A       3 (A) B      
  0.0019657531       1 (A) A       1 (A) B     ->    5 (A) B       3 (A) A      
 -0.0019657531       1 (A) A       1 (A) B     ->    3 (A) B       5 (A) A      
  0.0019657531       1 (A) B       1 (A) A     ->    3 (A) A       5 (A) B      
 -0.0019657531       1 (A) B       1 (A) A     ->    5 (A) A       3 (A) B      
  0.0019657531       1 (A) B       1 (A) A     ->    3 (A) B       5 (A) A      
 -0.0019657531       1 (A) B       1 (A) A     ->    5 (A) B       3 (A) A      
 -0.0010131728       1 (A) A       1 (A) B     ->    5 (A) A       6 (A) B      
  0.0010131728       1 (A) A       1 (A) B     ->    6 (A) A       5 (A) B      
  0.0010131728       1 (A) A       1 (A) B     ->    6 (A) B       5 (A) A      
 -0.0010131728       1 (A) A       1 (A) B     ->    5 (A) B       6 (A) A      
  0.0010131728       1 (A) B       1 (A) A     ->    5 (A) A       6 (A) B      
 -0.0010131728       1 (A) B       1 (A) A     ->    6 (A) A       5 (A) B      
  0.0010131728       1 (A) B       1 (A) A     ->    5 (A) B       6 (A) A      
 -0.0010131728       1 (A) B       1 (A) A     ->    6 (A) B       5 (A) A      
  0.0006658632       1 (A) A       2 (A) B     ->    6 (A) A       5 (A) B      
 -0.0006658632       2 (A) A       1 (A) B     ->    5 (A) A       6 (A) B      
 -0.0006658632       1 (A) A       2 (A) B     ->    5 (A) B       6 (A) A      
  0.0006658632       2 (A) A       1 (A) B     ->    6 (A) B       5 (A) A      
 -0.0006658632       2 (A) B       1 (A) A     ->    6 (A) A       5 (A) B      
  0.0006658632       1 (A) B       2 (A) A     ->    5 (A) A       6 (A) B      
 -0.0006658632       1 (A) B       2 (A) A     ->    6 (A) B       5 (A) A      
  0.0006658632       2 (A) B       1 (A) A     ->    5 (A) B       6 (A) A      
  0.0004380407       1 (A) A       2 (A) A     ->    3 (A) A       5 (A) A      
 -0.0004380407       1 (A) A       2 (A) A     ->    5 (A) A       3 (A) A      
 -0.0004380407       2 (A) A       1 (A) A     ->    3 (A) A       5 (A) A      
  0.0004380407       2 (A) A       1 (A) A     ->    5 (A) A       3 (A) A      
 -0.0004380407       1 (A) B       2 (A) B     ->    3 (A) B       5 (A) B      
  0.0004380407       1 (A) B       2 (A) B     ->    5 (A) B       3 (A) B      
  0.0004380407       2 (A) B       1 (A) B     ->    3 (A) B       5 (A) B      
 -0.0004380407       2 (A) B       1 (A) B     ->    5 (A) B       3 (A) B      
 -0.0000693158       1 (A) A       2 (A) B     ->    5 (A) A       6 (A) B      
  0.0000693158       2 (A) A       1 (A) B     ->    6 (A) A       5 (A) B      
  0.0000693158       1 (A) A       2 (A) B     ->    6 (A) B       5 (A) A      
 -0.0000693158       2 (A) A       1 (A) B     ->    5 (A) B       6 (A) A      
  0.0000693158       2 (A) B       1 (A) A     ->    5 (A) A       6 (A) B      
 -0.0000693158       1 (A) B       2 (A) A     ->    6 (A) A       5 (A) B      
  0.0000693158       1 (A) B       2 (A) A     ->    5 (A) B       6 (A) A      
 -0.0000693158       2 (A) B       1 (A) A     ->    6 (A) B       5 (A) A      

              Summary of significant orbitals:

               Number  Type             Irrep      Energy
               1       Occ  Alpha       1 (A)     -2.3467
               2       Occ  Alpha       2 (A)     -0.3078
               1       Occ  Beta        1 (A)     -2.3467
               2       Occ  Beta        2 (A)     -0.3078
               3       Vir  Alpha       3 (A)      0.0797
               5       Vir  Alpha       5 (A)      0.1625
               6       Vir  Alpha       6 (A)      0.6134
               3       Vir  Beta        3 (A)      0.0797
               5       Vir  Beta        5 (A)      0.1625
               6       Vir  Beta        6 (A)      0.6134


 EOMEE transition 3/A
 Total energy = -7.69534148 a.u.  Excitation energy = 4.72909837 eV.
 R0^2 = 0.0000  R1^2 = 0.9449  R2^2 = 0.0551  Res^2 = 2.89e-07
 Conv-d = yes

 Amplitude    Transitions between orbitals
 -0.6873477523       2 (A) A                   ->    4 (A) A                    
  0.6873477523       2 (A) B                   ->    4 (A) B                    
  0.0014565605       1 (A) A                   ->    4 (A) A                    
 -0.0014565605       1 (A) B                   ->    4 (A) B                    
  0.1389673130       2 (A) A       2 (A) B     ->    4 (A) A       6 (A) B      
 -0.1389673130       2 (A) A       2 (A) B     ->    6 (A) A       4 (A) B      
 -0.1389673130       2 (A) A       2 (A) B     ->    6 (A) B       4 (A) A      
  0.1389673130       2 (A) A       2 (A) B     ->    4 (A) B       6 (A) A      
 -0.1389673130       2 (A) B       2 (A) A     ->    4 (A) A       6 (A) B      
  0.1389673130       2 (A) B       2 (A) A     ->    6 (A) A       4 (A) B      
 -0.1389673130       2 (A) B       2 (A) A     ->    4 (A) B       6 (A) A      
  0.1389673130       2 (A) B       2 (A) A     ->    6 (A) B       4 (A) A      
  0.0905024035       2 (A) A       2 (A) B     ->    3 (A) A       4 (A) B      
 -0.0905024035       2 (A) A       2 (A) B     ->    4 (A) A       3 (A) B      
 -0.0905024035       2 (A) A       2 (A) B     ->    4 (A) B       3 (A) A      
  0.0905024035       2 (A) A       2 (A) B     ->    3 (A) B       4 (A) A      
 -0.0905024035       2 (A) B       2 (A) A     ->    3 (A) A       4 (A) B      
  0.0905024035       2 (A) B       2 (A) A     ->    4 (A) A       3 (A) B      
 -0.0905024035       2 (A) B       2 (A) A     ->    3 (A) B       4 (A) A      
  0.0905024035       2 (A) B       2 (A) A     ->    4 (A) B       3 (A) A      
  0.0045388169       1 (A) A       2 (A) A     ->    4 (A) A       6 (A) A      
 -0.0045388169       1 (A) A       2 (A) A     ->    6 (A) A       4 (A) A      
 -0.0045388169       2 (A) A       1 (A) A     ->    4 (A) A       6 (A) A      
  0.0045388169       2 (A) A       1 (A) A     ->    6 (A) A       4 (A) A      
 -0.0045388169       1 (A) B       2 (A) B     ->    4 (A) B       6 (A) B      
  0.0045388169       1 (A) B       2 (A) B     ->    6 (A) B       4 (A) B      
  0.0045388169       2 (A) B       1 (A) B     ->    4 (A) B       6 (A) B      
 -0.0045388169       2 (A) B       1 (A) B     ->    6 (A) B       4 (A) B      
  0.0038480210       1 (A) A       2 (A) B     ->    3 (A) A       4 (A) B      
 -0.0038480210       2 (A) A       1 (A) B     ->    4 (A) A       3 (A) B      
 -0.0038480210       1 (A) A       2 (A) B     ->    4 (A) B       3 (A) A      
  0.0038480210       2 (A) A       1 (A) B     ->    3 (A) B       4 (A) A      
 -0.0038480210       2 (A) B       1 (A) A     ->    3 (A) A       4 (A) B      
  0.0038480210       1 (A) B       2 (A) A     ->    4 (A) A       3 (A) B      
 -0.0038480210       1 (A) B       2 (A) A     ->    3 (A) B       4 (A) A      
  0.0038480210       2 (A) B       1 (A) A     ->    4 (A) B       3 (A) A      
  0.0027217326       1 (A) A       2 (A) B     ->    4 (A) A       3 (A) B      
 -0.0027217326       2 (A) A       1 (A) B     ->    3 (A) A       4 (A) B      
 -0.0027217326       1 (A) A       2 (A) B     ->    3 (A) B       4 (A) A      
  0.0027217326       2 (A) A       1 (A) B     ->    4 (A) B       3 (A) A      
 -0.0027217326       2 (A) B       1 (A) A     ->    4 (A) A       3 (A) B      
  0.0027217326       1 (A) B       2 (A) A     ->    3 (A) A       4 (A) B      
 -0.0027217326       1 (A) B       2 (A) A     ->    4 (A) B       3 (A) A      
  0.0027217326       2 (A) B       1 (A) A     ->    3 (A) B       4 (A) A      
 -0.0019657531       1 (A) A       1 (A) B     ->    3 (A) A       4 (A) B      
  0.0019657531       1 (A) A       1 (A) B     ->    4 (A) A       3 (A) B      
  0.0019657531       1 (A) A       1 (A) B     ->    4 (A) B       3 (A) A      
 -0.0019657531       1 (A) A       1 (A) B     ->    3 (A) B       4 (A) A      
  0.0019657531       1 (A) B       1 (A) A     ->    3 (A) A       4 (A) B      
 -0.0019657531       1 (A) B       1 (A) A     ->    4 (A) A       3 (A) B      
  0.0019657531       1 (A) B       1 (A) A     ->    3 (A) B       4 (A) A      
 -0.0019657531       1 (A) B       1 (A) A     ->    4 (A) B       3 (A) A      
 -0.0010131728       1 (A) A       1 (A) B     ->    4 (A) A       6 (A) B      
  0.0010131728       1 (A) A       1 (A) B     ->    6 (A) A       4 (A) B      
  0.0010131728       1 (A) A       1 (A) B     ->    6 (A) B       4 (A) A      
 -0.0010131728       1 (A) A       1 (A) B     ->    4 (A) B       6 (A) A      
  0.0010131728       1 (A) B       1 (A) A     ->    4 (A) A       6 (A) B      
 -0.0010131728       1 (A) B       1 (A) A     ->    6 (A) A       4 (A) B      
  0.0010131728       1 (A) B       1 (A) A     ->    4 (A) B       6 (A) A      
 -0.0010131728       1 (A) B       1 (A) A     ->    6 (A) B       4 (A) A      
  0.0006658632       1 (A) A       2 (A) B     ->    6 (A) A       4 (A) B      
 -0.0006658632       2 (A) A       1 (A) B     ->    4 (A) A       6 (A) B      
 -0.0006658632       1 (A) A       2 (A) B     ->    4 (A) B       6 (A) A      
  0.0006658632       2 (A) A       1 (A) B     ->    6 (A) B       4 (A) A      
 -0.0006658632       2 (A) B       1 (A) A     ->    6 (A) A       4 (A) B      
  0.0006658632       1 (A) B       2 (A) A     ->    4 (A) A       6 (A) B      
 -0.0006658632       1 (A) B       2 (A) A     ->    6 (A) B       4 (A) A      
  0.0006658632       2 (A) B       1 (A) A     ->    4 (A) B       6 (A) A      
  0.0004380407       1 (A) A       2 (A) A     ->    3 (A) A       4 (A) A      
 -0.0004380407       1 (A) A       2 (A) A     ->    4 (A) A       3 (A) A      
 -0.0004380407       2 (A) A       1 (A) A     ->    3 (A) A       4 (A) A      
  0.0004380407       2 (A) A       1 (A) A     ->    4 (A) A       3 (A) A      
 -0.0004380407       1 (A) B       2 (A) B     ->    3 (A) B       4 (A) B      
  0.0004380407       1 (A) B       2 (A) B     ->    4 (A) B       3 (A) B      
  0.0004380407       2 (A) B       1 (A) B     ->    3 (A) B       4 (A) B      
 -0.0004380407       2 (A) B       1 (A) B     ->    4 (A) B       3 (A) B      
 -0.0000693158       1 (A) A       2 (A) B     ->    4 (A) A       6 (A) B      
  0.0000693158       2 (A) A       1 (A) B     ->    6 (A) A       4 (A) B      
  0.0000693158       1 (A) A       2 (A) B     ->    6 (A) B       4 (A) A      
 -0.0000693158       2 (A) A       1 (A) B     ->    4 (A) B       6 (A) A      
  0.0000693158       2 (A) B       1 (A) A     ->    4 (A) A       6 (A) B      
 -0.0000693158       1 (A) B       2 (A) A     ->    6 (A) A       4 (A) B      
  0.0000693158       1 (A) B       2 (A) A     ->    4 (A) B       6 (A) A      
 -0.0000693158       2 (A) B       1 (A) A     ->    6 (A) B       4 (A) A      

              Summary of significant orbitals:

               Number  Type             Irrep      Energy
               1       Occ  Alpha       1 (A)     -2.3467
               2       Occ  Alpha       2 (A)     -0.3078
               1       Occ  Beta        1 (A)     -2.3467
               2       Occ  Beta        2 (A)     -0.3078
               3       Vir  Alpha       3 (A)      0.0797
               4       Vir  Alpha       4 (A)      0.1625
               6       Vir  Alpha       6 (A)      0.6134
               3       Vir  Beta        3 (A)      0.0797
               4       Vir  Beta        4 (A)      0.1625
               6       Vir  Beta        6 (A)      0.6134


 EEs and amplitudes of EOMEE has be exported to fchk file
Running a double precision version
      EOM-CCSD/MP2 left amplitudes will be solved using Davidson.
        Amplitudes will be solved using MOM  algorithm.
     Hard-coded thresholds: 
     LinDepThresh=1.00e-15  NormThresh=1.00e-06  ReorthogonThresh=1.00e-02

      Roots     MaxVec    MaxIter   Precond   Conv      Shift    
      3         120       60        1         1.00e-05  0.00e+00  
 ------------------------------------------------------------------------------
      Iter ConvRoots NVecs ResNorm Current eigenvalues (eV)
 ------------------------------------------------------------------------------
      0    0      3     1.57e-04   3.5375   4.7291   4.7291   
      1    0      6     1.04e-04   3.5375   4.7291   4.7291   
      2    3      9     5.90e-06   3.5375*  4.7291*  4.7291*  

     Davidson procedure converged

biorthogonolize_left_to_right(): degenerate block detected, ndeg=2

 Excited state properties for  EOMEE-CCSD transition 1/A
 Dipole moment (a.u.): 1.553475 (X 0.000000, Y 0.000000, Z 1.553475)
 R-squared (a.u.): 21.943215 (XX 4.927257, YY 4.927257, ZZ 12.088702)
 Gauge origin (a.u.): (0.000000, 0.000000, 0.000000)
 Angular momentum (a.u.) against gauge origin: 
 (X 0.000000i, Y 0.000000i, Z 0.000000i)
 Traces of the OPDMs: Tr(AA) 2.000000, Tr(BB) 2.000000

 Excited state properties for  EOMEE-CCSD transition 2/A
 Dipole moment (a.u.): 0.083953 (X 0.000000, Y 0.000000, Z 0.083953)
 R-squared (a.u.): 19.809854 (XX 6.006172, YY 6.006166, ZZ 7.797516)
 Gauge origin (a.u.): (0.000000, 0.000000, 0.000000)
 Angular momentum (a.u.) against gauge origin: 
 (X 0.000000i, Y 0.000000i, Z 0.000000i)
 Traces of the OPDMs: Tr(AA) 2.000000, Tr(BB) 2.000000

 Excited state properties for  EOMEE-CCSD transition 3/A
 Dipole moment (a.u.): 0.083953 (X 0.000000, Y 0.000000, Z 0.083953)
 R-squared (a.u.): 19.809854 (XX 6.006166, YY 6.006172, ZZ 7.797516)
 Gauge origin (a.u.): (0.000000, 0.000000, 0.000000)
 Angular momentum (a.u.) against gauge origin: 
 (X 0.000000i, Y 0.000000i, Z 0.000000i)
 Traces of the OPDMs: Tr(AA) 2.000000, Tr(BB) 2.000000

 EOMEE-CCSD calculation:   CPU 2.40 s  wall 1.66 s

 Total ccman2 time:   CPU 3.25 s  wall 2.16 s


 --------------------------------------------------------------

                    Orbital Energies (a.u.)
 --------------------------------------------------------------

 Alpha MOs
 -- Occupied --
 -2.3467  -0.3078
 -- Virtual --
  0.0797   0.1625   0.1625   0.6134
 --------------------------------------------------------------

          Ground-State Mulliken Net Atomic Charges

     Atom                 Charge (a.u.)
  ----------------------------------------
      1 Li                   -0.016530
      2 H                     0.016530
  ----------------------------------------
  Sum of atomic charges =     0.000000

 -----------------------------------------------------------------
                    Cartesian Multipole Moments
 -----------------------------------------------------------------
    Charge (ESU x 10^10)
                -0.0000
    Dipole Moment (Debye)
         X       0.0000      Y       0.0000      Z      -4.6605
       Tot       4.6605
    Quadrupole Moments (Debye-Ang)
        XX      -5.3046     XY      -0.0000     YY      -5.3046
        XZ       0.0000     YZ       0.0000     ZZ      -5.4352
    Octopole Moments (Debye-Ang^2)
       XXX       0.0000    XXY       0.0000    XYY       0.0000
       YYY       0.0000    XXZ      -3.2340    XYZ       0.0000
       YYZ      -3.2340    XZZ       0.0000    YZZ       0.0000
       ZZZ      -9.4061
    Hexadecapole Moments (Debye-Ang^3)
      XXXX     -12.6952   XXXY      -0.0000   XXYY      -4.2317
      XYYY      -0.0000   YYYY     -12.6952   XXXZ       0.0000
      XXYZ       0.0000   XYYZ       0.0000   YYYZ       0.0000
      XXZZ      -5.5573   XYZZ      -0.0000   YYZZ      -5.5573
      XZZZ       0.0000   YZZZ       0.0000   ZZZZ     -21.0434
 -----------------------------------------------------------------
 Total job time:  3.63s(wall), 5.64s(cpu) 
 Thu Aug 11 11:27:41 2022

        *************************************************************
        *                                                           *
        *  Thank you very much for using Q-Chem.  Have a nice day.  *
        *                                                           *
        *************************************************************


