Jobname.Temp
SP        R                             STO-3G              
Number of atoms                            I                2
Charge                                     I                0
Multiplicity                               I                1
Number of electrons                        I                4
Number of alpha electrons                  I                2
Number of beta electrons                   I                2
Atomic numbers                             I   N=           2
           3           1
Current cartesian coordinates              R   N=           6
  0.00000000E+00  0.00000000E+00 -8.97619909E-01  0.00000000E+00  0.00000000E+00
  2.69285973E+00
Nuclear charges                            R   N=           2
  3.00000000E+00  1.00000000E+00
Number of basis functions                  I                6
Number of contracted shells                I                3
Number of primitive shells                 I                9
Highest angular momentum                   I                1
Largest degree of contraction              I                3
Shell types                                I   N=           3
           0          -1           0
Number of primitives per shell             I   N=           3
           3           3           3
Shell to atom map                          I   N=           3
           1           1           2
Primitive exponents                        R   N=           9
  1.61195750E+01  2.93620070E+00  7.94650500E-01  6.36289700E-01  1.47860100E-01
  4.80887000E-02  3.42525091E+00  6.23913730E-01  1.68855400E-01
Contraction coefficients                   R   N=           9
  1.54328970E-01  5.35328141E-01  4.44634541E-01 -9.99672298E-02  3.99512829E-01
  7.00115469E-01  1.54328971E-01  5.35328142E-01  4.44634542E-01
P(S=P) Contraction coefficients            R   N=           9
  0.00000000E+00  0.00000000E+00  0.00000000E+00  1.55916265E-01  6.07683701E-01
  3.91957378E-01  0.00000000E+00  0.00000000E+00  0.00000000E+00
Coordinates of each shell                  R   N=           9
  0.00000000E+00  0.00000000E+00 -8.97619909E-01  0.00000000E+00  0.00000000E+00
 -8.97619909E-01  0.00000000E+00  0.00000000E+00  2.69285973E+00
Overlap Matrix                             R   N=          21
  1.00000000E+00  2.41136651E-01  1.00000000E+00  0.00000000E+00  0.00000000E+00
  1.00000000E+00  0.00000000E+00  0.00000000E+00  0.00000000E+00  1.00000000E+00
 -7.47418119E-18 -1.76853903E-17  0.00000000E+00  0.00000000E+00  1.00000000E+00
  3.46460132E-02  3.21907326E-01  0.00000000E+00  0.00000000E+00  4.46689116E-01
  1.00000000E+00
Core Hamiltonian Matrix                    R   N=          21
 -4.68460928E+00 -1.05174044E+00 -1.36421526E+00  0.00000000E+00  0.00000000E+00
 -1.10958446E+00  0.00000000E+00  0.00000000E+00  0.00000000E+00 -1.10958446E+00
 -1.14212409E-02 -1.04788992E-01  0.00000000E+00  0.00000000E+00 -1.19215252E+00
 -1.55527251E-01 -5.23519149E-01  0.00000000E+00  0.00000000E+00 -6.83534014E-01
 -1.30159944E+00
Orbital Coefficients CCMAN2 Alpha          R   N=          36
 -9.91405272E-01 -3.34247697E-02 -1.10231620E-16  7.50537296E-16  4.87940659E-03
  7.88706213E-05 -1.53696003E-01  4.79873457E-01 -3.98176321E-18  1.20054970E-16
  3.35265696E-01  5.72074341E-01  2.13261419E-01 -7.98090778E-01 -1.59569784E-16
  1.53171909E-15  6.03395209E-01  1.69647655E-01  3.85328918E-17 -1.69842968E-16
  1.00000000E+00  2.49166759E-16  1.36500134E-16  3.69288665E-17  1.20037775E-16
 -1.28250526E-15  7.62154317E-16 -1.00000000E+00  7.90041593E-16  4.74311443E-16
 -1.12897394E-01  5.94041813E-01 -3.76008170E-17 -1.82040459E-16  9.00350323E-01
 -1.04069255E+00
Orbital Coefficients CCMAN2 Beta           R   N=          36
 -1.53696003E-01  4.79873457E-01 -3.98176321E-18  1.20054970E-16  3.35265696E-01
  5.72074341E-01  2.13261419E-01 -7.98090778E-01 -1.59569784E-16  1.53171909E-15
  6.03395209E-01  1.69647655E-01  3.85328918E-17 -1.69842968E-16  1.00000000E+00
  2.49166759E-16  1.36500134E-16  3.69288665E-17  1.20037775E-16 -1.28250526E-15
  7.62154317E-16 -1.00000000E+00  7.90041593E-16  4.74311443E-16 -1.12897394E-01
  5.94041813E-01 -3.76008170E-17 -1.82040459E-16  9.00350323E-01 -1.04069255E+00
 -9.91405272E-01 -3.34247697E-02 -1.10231620E-16  7.50537296E-16  4.87940659E-03
  7.88706213E-05
EOMEE transition A Excitation Energies     R   N=           3
  1.14531970E-01  1.63653626E-01  1.63653627E-01
Number of Active Occ                       I                4
Number of Active Vir                       I                8
Alpha Amplitudes                           R   N=           6
  6.47211677E-01  6.47211677E-01 -6.50978506E-01 -6.50978506E-01 -6.50978506E-01
 -6.50978506E-01
Alpha J Indexes                            I   N=           4
           0           2           4           6
Alpha I Indexes                            I   N=           6
           8          28          10          30           9          29
EOMEE transition A Excitation Energies     R   N=           3
  9.31260526E-02  1.50366564E-01  1.50366564E-01
Number of Active Occ                       I                4
Number of Active Vir                       I                8
Alpha Amplitudes                           R   N=           8
  6.72612711E-01 -1.32026820E-01 -6.72612711E-01  1.32026820E-01 -6.67604944E-01
  6.67604944E-01 -6.67604944E-01  6.67604944E-01
Alpha J Indexes                            I   N=           4
           0           4           6           8
Alpha I Indexes                            I   N=           8
           8          11          28          31          10          30
           9          29
Number of independent functions            I                6
Alpha MO coefficients                      R   N=          36
 -9.91405272E-01 -3.34247697E-02 -1.10231620E-16  7.50537296E-16  4.87940659E-03
  7.88706213E-05 -1.53696003E-01  4.79873457E-01 -3.98176321E-18  1.20054970E-16
  3.35265696E-01  5.72074341E-01  2.13261419E-01 -7.98090778E-01 -1.59569784E-16
  1.53171909E-15  6.03395209E-01  1.69647655E-01  3.85328918E-17 -1.69842968E-16
  1.00000000E+00  2.49166759E-16  1.36500134E-16  3.69288665E-17  1.20037775E-16
 -1.28250526E-15  7.62154317E-16 -1.00000000E+00  7.90041593E-16  4.74311443E-16
 -1.12897394E-01  5.94041813E-01 -3.76008170E-17 -1.82040459E-16  9.00350323E-01
 -1.04069255E+00
Alpha Orbital Energies                     R   N=           6
 -2.35777502E+00 -2.58893211E-01  7.47168273E-02  1.62905260E-01  1.62905261E-01
  4.60679880E-01
Total SCF Density                          R   N=          21
  2.01956782E+00 -1.07855470E-01  5.72100961E-01  2.33707606E-16 -2.76298493E-17
  1.14967965E-03 -1.07091250E-15  1.53663570E-17 -1.87185564E-18  1.14967965E-03
 -1.08446918E-01  3.22755264E-01 -2.05207862E-17  3.40558104E-17  1.83669151E-01
 -1.67023453E-01  5.01826442E-01 -2.10079060E-17  5.31245587E-17  2.93639785E-01
  7.00537311E-01
Pure Switching                             I                1
Dipole_Data                                R   N=           3
  1.05028071E-16  5.93257917E-16 -4.53747710E+00
Quadrupole_Data                            R   N=           6
 -5.68949145E+00  1.18334015E-17 -5.68949145E+00  1.12907568E-16 -5.80713411E-16
 -4.26703509E+00
Octapole_Data                              R   N=          10
  6.69269075E-16 -6.50400101E-17  2.23089692E-16 -1.95120030E-16 -2.92195017E+00
 -5.62086571E-18 -2.92195017E+00  1.35643803E-16  2.42748067E-16 -8.88691379E+00
Hexadecapole_Data                          R   N=          15
 -1.46047822E+01  3.12905654E-17 -4.86826073E+00  3.12905654E-17 -1.46047822E+01
  7.13719183E-17 -1.97847858E-16  2.37906394E-17 -5.93543574E-16 -6.74686236E+00
  1.31000997E-17 -6.74686236E+00  1.68181863E-16 -8.54075428E-16 -2.46737099E+01
