                  Welcome to Q-Chem
     A Quantum Leap Into The Future Of Chemistry


 Q-Chem 5.4 (devel), Q-Chem, Inc., Pleasanton, CA (2021)

 E. Epifanovsky,  A. T. B. Gilbert,  Xintian Feng,  Joonho Lee,  Yuezhi Mao,  
 N. Mardirossian,  P. Pokhilko,  A. White,  M. Wormit,  M. P. Coons,  
 A. L. Dempwolff,  Zhengting Gan,  D. Hait,  P. R. Horn,  L. D. Jacobson,  
 I. Kaliman,  J. Kussmann,  A. W. Lange,  Ka Un Lao,  D. S. Levine,  Jie Liu,  
 S. C. McKenzie,  A. F. Morrison,  K. Nanda,  F. Plasser,  D. R. Rehn,  
 M. L. Vidal,  Zhi-Qiang You,  Ying Zhu,  B. Alam,  B. Albrecht,  
 A. Aldossary,  E. Alguire,  J. H. Andersen,  D. Barton,  K. Begam,  A. Behn,  
 Y. A. Bernard,  E. J. Berquist,  H. Burton,  A. Carreras,  K. Carter-Fenk,  
 R. Chakraborty,  A. D. Chien,  K. D. Closser,  V. Cofer-Shabica,  
 S. Dasgupta,  Jia Deng,  M. de Wergifosse,  M. Diedenhofen,  Hainam Do,  
 S. Ehlert,  Po-Tung Fang,  S. Fatehi,  Qingguo Feng,  T. Friedhoff,  
 J. Gayvert,  Qinghui Ge,  G. Gidofalvi,  M. Goldey,  J. Gomes,  
 C. Gonzalez-Espinoza,  S. Gulania,  A. Gunina,  M. W. D. Hanson-Heine,  
 P. H. P. Harbach,  A. W. Hauser,  M. F. Herbst,  M. Hernandez Vera,  
 M. Hodecker,  Z. C. Holden,  S. Houck,  Xunkun Huang,  Kerwin Hui,  
 B. C. Huynh,  M. Ivanov,  Hyunjun Ji,  Hanjie Jiang,  B. Kaduk,  S. Kaehler,  
 K. Khistyaev,  Jaehoon Kim,  P. Klunzinger,  Z. Koczor-Benda,  
 Joong Hoon Koh,  D. Kosenkov,  L. Koulias,  T. Kowalczyk,  C. M. Krauter,  
 K. Kue,  A. Kunitsa,  T. Kus,  A. Landau,  K. V. Lawler,  D. Lefrancois,  
 S. Lehtola,  Rain Li,  Yi-Pei Li,  Jiashu Liang,  M. Liebenthal,  
 Hung-Hsuan Lin,  You-Sheng Lin,  Fenglai Liu,  Kuan-Yu Liu,  
 M. Loipersberger,  A. Luenser,  A. Manjanath,  P. Manohar,  E. Mansoor,  
 S. F. Manzer,  Shan-Ping Mao,  A. V. Marenich,  T. Markovich,  S. Mason,  
 S. A. Maurer,  P. F. McLaughlin,  M. F. S. J. Menger,  J.-M. Mewes,  
 S. A. Mewes,  P. Morgante,  J. W. Mullinax,  K. J. Oosterbaan,  G. Paran,  
 Alexander C. Paul,  Suranjan K. Paul,  F. Pavosevic,  Zheng Pei,  S. Prager,  
 E. I. Proynov,  E. Ramos,  B. Rana,  A. E. Rask,  A. Rettig,  R. M. Richard,  
 F. Rob,  E. Rossomme,  T. Scheele,  M. Scheurer,  M. Schneider,  
 N. Sergueev,  S. M. Sharada,  W. Skomorowski,  D. W. Small,  C. J. Stein,  
 Yu-Chuan Su,  E. J. Sundstrom,  Zhen Tao,  J. Thirman,  T. Tsuchimochi,  
 N. M. Tubman,  S. P. Veccham,  O. Vydrov,  J. Wenzel,  J. Witte,  A. Yamada,  
 Kun Yao,  S. Yeganeh,  S. R. Yost,  A. Zech,  Igor Ying Zhang,  Xing Zhang,  
 Yu Zhang,  D. Zuev,  A. Aspuru-Guzik,  A. T. Bell,  N. A. Besley,  
 K. B. Bravaya,  B. R. Brooks,  D. Casanova,  Jeng-Da Chai,  S. Coriani,  
 C. J. Cramer,  A. E. DePrince, III,  R. A. DiStasio Jr.,  A. Dreuw,  
 B. D. Dunietz,  T. R. Furlani,  W. A. Goddard III,  S. Grimme,  
 S. Hammes-Schiffer,  T. Head-Gordon,  W. J. Hehre,  Chao-Ping Hsu,  
 T.-C. Jagau,  Yousung Jung,  A. Klamt,  Jing Kong,  D. S. Lambrecht,  
 WanZhen Liang,  N. J. Mayhall,  C. W. McCurdy,  J. B. Neaton,  
 C. Ochsenfeld,  J. A. Parkhill,  R. Peverati,  V. A. Rassolov,  Yihan Shao,  
 L. V. Slipchenko,  T. Stauch,  R. P. Steele,  J. E. Subotnik,  
 A. J. W. Thom,  A. Tkatchenko,  D. G. Truhlar,  T. Van Voorhis,  
 T. A. Wesolowski,  K. B. Whaley,  H. L. Woodcock III,  P. M. Zimmerman,  
 S. Faraji,  P. M. W. Gill,  M. Head-Gordon,  J. M. Herbert,  A. I. Krylov

 Additional authors for Version 5.4.1: 
 S. Kotaru,  Shaozhi Li,  Xiangyuan Li,  F. Matz,  A. Molle,  Haisheng Ren,  
 Yingli Su,  Hung-Yi Tsai,  C. Utku,  Fang Wang

 Contributors to earlier versions of Q-Chem not listed above: 
 R. D. Adamson,  B. Austin,  R. Baer,  J. Baker,  G. J. O. Beran,  
 K. Brandhorst,  S. T. Brown,  E. F. C. Byrd,  A. K. Chakraborty,  
 G. K. L. Chan,  Chun-Min Chang,  Yunqing Chen,  C.-L. Cheng,  
 Siu Hung Chien,  D. M. Chipman,  D. L. Crittenden,  H. Dachsel,  
 R. J. Doerksen,  A. D. Dutoi,  R. G. Edgar,  J. Fosso-Tande,  
 L. Fusti-Molnar,  D. Ghosh,  A. Ghysels,  A. Golubeva-Zadorozhnaya,  
 J. Gonthier,  M. S. Gordon,  S. R. Gwaltney,  G. Hawkins,  J. E. Herr,  
 A. Heyden,  S. Hirata,  E. G. Hohenstein,  G. Kedziora,  F. J. Keil,  
 C. Kelley,  Jihan Kim,  R. A. King,  R. Z. Khaliullin,  P. P. Korambath,  
 W. Kurlancheek,  A. Laurent,  A. M. Lee,  M. S. Lee,  S. V. Levchenko,  
 Ching Yeh Lin,  D. Liotard,  E. Livshits,  R. C. Lochan,  I. Lotan,  
 L. A. Martinez-Martinez,  P. E. Maslen,  N. Nair,  D. P. O'Neill,  
 D. Neuhauser,  E. Neuscamman,  C. M. Oana,  R. Olivares-Amaya,  R. Olson,  
 T. M. Perrine,  B. Peters,  P. A. Pieniazek,  A. Prociuk,  Y. M. Rhee,  
 J. Ritchie,  M. A. Rohrdanz,  E. Rosta,  N. J. Russ,  H. F. Schaefer III,  
 M. W. Schmidt,  N. E. Schultz,  S. Sharma,  N. Shenvi,  C. D. Sherrill,  
 A. C. Simmonett,  A. Sodt,  T. Stein,  D. Stuck,  K. S. Thanthiriwatte,  
 V. Vanovschi,  L. Vogt,  Tao Wang,  A. Warshel,  M. A. Watson,  
 C. F. Williams,  Q. Wu,  X. Xu,  Jun Yang,  W. Zhang,  Yan Zhao

 Please cite Q-Chem as follows:
 Y. Shao et al., Mol. Phys. 113, 184-215 (2015)
 DOI: 10.1080/00268976.2014.952696

 Q-Chem 5.4.1 for Intel X86 EM64T Linux

 Parts of Q-Chem use Armadillo 9.900.5 (Nocturnal Misbehaviour).
 http://arma.sourceforge.net/

 Q-Chem begins on Thu Aug 11 11:30:16 2022  

orc34
 Host: 0

     Scratch files written to /scratch/yongbin/qchem49140//
 Processing $rem in /home/users/yongbin/software/yongbin_quantum/config/preferences:
 Processing $rem in /home/users/yongbin/.qchemrc:

 Checking the input file for inconsistencies... 	...done.

--------------------------------------------------------------
User input:
--------------------------------------------------------------
$comment
Hydrogen molecule
$end

$molecule
0 1
  Li        0.0000000000    0.0000000000    0.0000000000
  H         0.0000000000    0.0000000000    1.9000000000
$end

$rem
   n_frozen_core = 0
   print_qis = true
   BASIS                = sto-3g
   SYMMETRY             = false
   CC_SYMMETRY          = false
   METHOD               = eom-ccsd
   EE_SINGLETS          = [3]  ! Compute two EOM-EE singlet excited states
   EE_TRIPLETS          = [3]  ! Compute two EOM-EE triplet excited states
   CC_REF_PROP          = true ! Compute ground state properties
   CC_EOM_PROP          = true ! Compute excited state properties
   CC_OSFNO             = true
   GUI                  = 2
$end                  
--------------------------------------------------------------
 ----------------------------------------------------------------
             Standard Nuclear Orientation (Angstroms)
    I     Atom           X                Y                Z
 ----------------------------------------------------------------
    1      Li      0.0000000000     0.0000000000    -0.4750000000
    2      H       0.0000000000     0.0000000000     1.4250000000
 ----------------------------------------------------------------
 Molecular Point Group                 C*v   NOp =***
 Largest Abelian Subgroup              C2v   NOp =  1
 Nuclear Repulsion Energy =           0.83554296 hartrees
 There are        2 alpha and        2 beta electrons
 Requested basis set is STO-3G
 There are 3 shells and 6 basis functions
 Total memory of 2000 MB is distributed as follows: 
   MEM_STATIC is set to 192 MB
   QALLOC/CCMAN JOB total memory use is  1808 MB
 Warning: actual memory use might exceed 2000 MB

 Total QAlloc Memory Limit   2000 MB
 Mega-Array Size       188 MB
 MEM_STATIC part       192 MB

                       Distance Matrix (Angstroms)
             Li(  1)
   H (  2)  1.900000

 A cutoff of  1.0D-14 yielded      6 shell pairs
 There are        27 function pairs
 Smallest overlap matrix eigenvalue = 4.38E-01

 Scale SEOQF with 1.000000e+00/1.000000e+00/1.000000e+00

 Standard Electronic Orientation quadrupole field applied
 Nucleus-field energy     =    -0.0000000029 hartrees
 Guess from superposition of atomic densities
 Warning:  Energy on first SCF cycle will be non-variational
 SAD guess density has 4.000000 electrons

 -----------------------------------------------------------------------
  General SCF calculation program by
  Eric Jon Sundstrom, Paul Horn, Yuezhi Mao, Dmitri Zuev, Alec White,
  David Stuck, Shaama M.S., Shane Yost, Joonho Lee, David Small,
  Daniel Levine, Susi Lehtola, Hugh Burton, Evgeny Epifanovsky,
  Bang C. Huynh
 -----------------------------------------------------------------------
 Hartree-Fock
 using 16 threads for integral computing
 -------------------------------------------------------
 OpenMP Integral computing Module                
 Release: version 1.0, May 2013, Q-Chem Inc. Pittsburgh 
 -------------------------------------------------------
 A restricted SCF calculation will be
 performed using DIIS
 SCF converges when DIIS error is below 1.0e-08
 ---------------------------------------
  Cycle       Energy         DIIS error
 ---------------------------------------
    1      -7.5499493572      4.01e-02  
    2      -7.8311421130      2.50e-02  
    3      -7.8398684368      5.96e-03  
    4      -7.8409148601      1.91e-03  
    5      -7.8411107110      1.82e-04  
    6      -7.8411120346      1.17e-05  
    7      -7.8411120409      4.45e-07  
    8      -7.8411120409      2.16e-07  
    9      -7.8411120409      3.86e-10  Convergence criterion met
 ---------------------------------------
 SCF time:   CPU 1.13s  wall 1.00s 
 SCF   energy in the final basis set =       -7.8411120409
 Total energy in the final basis set =       -7.8411120409


 ------------------------------------------------------------------------------

   CCMAN2: suite of methods based on coupled cluster
           and equation of motion theories.

   Components:
   * libvmm-1.3-trunk
     by Evgeny Epifanovsky, Ilya Kaliman.
   * libtensor-2.5-trunk
     by Evgeny Epifanovsky, Michael Wormit, Dmitry Zuev, Sam Manzer, 
        Ilya Kaliman.
   * libcc-2.5-trunk
     by Evgeny Epifanovsky, Arik Landau, Tomasz Kus, Kirill Khistyaev, 
        Dmitry Zuev, Prashant Manohar, Xintian Feng, Anna Krylov, 
        Matthew Goldey, Alec White, Thomas Jagau, Kaushik Nanda, 
        Anastasia Gunina, Alexander Kunitsa, Joonho Lee.

   CCMAN original authors:
   Anna I. Krylov, C. David Sherrill, Steven R. Gwaltney,
   Edward F. C. Byrd (2000)
   Sergey V. Levchenko, Lyudmila V. Slipchenko, Tao Wang,
   Ana-Maria C. Cristian (2003)
   Piotr A. Pieniazek, C. Melania Oana, Evgeny Epifanovsky (2007)
   Prashant Manohar (2009)

 ------------------------------------------------------------------------------


 Allocating and initializing 1808MB of RAM...
 Calculation will run on 16 cores.


 Occupation and symmetry of molecular orbitals

 Point group: C1 (1 irreducible representation).

                           A     All 
 -------------------------------------
 All molecular orbitals:
  - Alpha                  6     6   
  - Beta                   6     6   
 -------------------------------------
 Alpha orbitals:
  - Frozen occupied        0     0   
  - Active occupied        2     2   
  - Active virtual         4     4   
  - Frozen virtual         0     0   
 -------------------------------------
 Beta orbitals:
  - Frozen occupied        0     0   
  - Active occupied        2     2   
  - Active virtual         4     4   
  - Frozen virtual         0     0   
 -------------------------------------

 Import integrals:   CPU 0.00 s  wall 0.00 s

 Import integrals:   CPU 0.11 s  wall 0.04 s

 Run QIS:   CPU 0.01 s  wall 0.01 s

 MP2 amplitudes:   CPU 0.00 s  wall 0.00 s

Running a double precision version
           CCSD T amplitudes will be solved using DIIS.

           Start     Size      MaxIter   EConv     TConv     
           3         7         100       1.00e-06  1.00e-04  
 ------------------------------------------------------------------------------
           Energy (a.u.)   Ediff      Tdiff       Comment
 ------------------------------------------------------------------------------
            -7.85718576                           
     1      -7.86329788   6.11e-03   1.35e-01     
     2      -7.86586695   2.57e-03   4.74e-02     
     3      -7.86698612   1.12e-03   1.93e-02     
     4      -7.86799545   1.01e-03   1.44e-02     Switched to DIIS steps.
     5      -7.86818799   1.93e-04   8.20e-03     
     6      -7.86822207   3.41e-05   1.08e-03     
     7      -7.86822684   4.77e-06   2.92e-04     
     8      -7.86822526   1.58e-06   2.98e-05     
     9      -7.86822536   1.03e-07   2.42e-06     
 ------------------------------------------------------------------------------
            -7.86822536                           CCSD T converged.

End of double precision
 SCF energy                 = -7.84111204
 MP2 energy                 = -7.85718576
 CCSD correlation energy    = -0.02711332
 CCSD total energy          = -7.86822536

 CCSD  T1^2 = 0.0057  T2^2 = 0.0389  Leading amplitudes:

 Amplitude    Orbitals with energies
 -0.0532210748       2 (A) A                   ->    3 (A) A                    
                    -0.2589                          0.0747                     
 -0.0532210748       2 (A) B                   ->    3 (A) B                    
                    -0.2589                          0.0747                     
 -0.0060215263       2 (A) A                   ->    6 (A) A                    
                    -0.2589                          0.4607                     
 -0.0060215263       2 (A) B                   ->    6 (A) B                    
                    -0.2589                          0.4607                     

 Amplitude    Orbitals with energies
 -0.1439043996       2 (A) A       2 (A) B     ->    6 (A) A       6 (A) B      
                    -0.2589       -0.2589            0.4607        0.4607       
  0.1439043996       2 (A) A       2 (A) B     ->    6 (A) B       6 (A) A      
                    -0.2589       -0.2589            0.4607        0.4607       
  0.1439043996       2 (A) B       2 (A) A     ->    6 (A) A       6 (A) B      
                    -0.2589       -0.2589            0.4607        0.4607       
 -0.1439043996       2 (A) B       2 (A) A     ->    6 (A) B       6 (A) A      
                    -0.2589       -0.2589            0.4607        0.4607       

 Computing CCSD intermediates for later calculations in double precision
 Finished.

Running a double precision version
           CCSD Lambda amplitudes will be solved using DIIS.
           Start     Size      MaxIter   EConv     LConv     
           3         7         100       1.00e-06  1.00e-04  
 ------------------------------------------------------------------------------
            Enorm      Ldiff       Comment
 ------------------------------------------------------------------------------
     1     1.26e-02   1.03e-02     
     2     4.11e-03   3.76e-03     
     3     2.01e-03   1.85e-03     
     4     8.76e-04   1.48e-03     Switched to DIIS steps.
     5     4.98e-04   6.15e-04     
     6     8.79e-05   5.29e-04     
     7     3.23e-06   5.29e-05     
     8     2.35e-07   2.12e-06     
 ------------------------------------------------------------------------------
                                   CCSD Lambda converged.

 Computing density matrices in double precision...
 Computing density matrices... Done.
 Reference state properties
 Dipole moment (a.u.): 1.785181 (X 0.000000, Y 0.000000, Z -1.785181)
 R-squared (a.u.): 21.301089 (XX 4.229998, YY 4.229998, ZZ 12.841094)
 Gauge origin (a.u.): (0.000000, 0.000000, 0.000000)
 Angular momentum (a.u.) against gauge origin: 
 (X 0.000000i, Y 0.000000i, Z 0.000000i)
 Traces of the OPDMs: Tr(AA) 2.000000, Tr(BB) 2.000000
 Density matrix was written to a file for further analysis.

 CCSD calculation:   CPU 0.67 s  wall 0.49 s

        Solving for EOMEE-CCSD A singlet states.

Running a double precision version
        EOMEE-CCSD/MP2 right amplitudes will be solved using Davidson.
        Amplitudes will be solved using standard  algorithm.
     Hard-coded thresholds: 
     LinDepThresh=1.00e-15  NormThresh=1.00e-06  ReorthogonThresh=1.00e-02

      Roots     MaxVec    MaxIter   Precond   Conv      Shift    
      3         120       60        1         1.00e-05  0.00e+00  
 ------------------------------------------------------------------------------
      Iter ConvRoots NVecs ResNorm Current eigenvalues (eV)
 ------------------------------------------------------------------------------
      0    0      3     3.61e-02   5.0096   6.5409   6.5409   
      1    0      6     2.97e-02   3.5037   4.6762   4.6762   
      2    0      9     1.01e-03   3.1519   4.4540   4.4540   
      3    2      12    9.46e-05   3.1195   4.4532*  4.4532*  
      4    3      13    5.16e-06   3.1166*  4.4532*  4.4532*  

     Davidson procedure converged

 EOMEE transition 1/A
 Total energy = -7.75369339 a.u.  Excitation energy = 3.11657340 eV.
 R0^2 = 0.0097  R1^2 = 0.8431  R2^2 = 0.1569  Res^2 = 6.78e-06
 Conv-d = yes

 Amplitude    Transitions between orbitals
  0.6472116768       2 (A) A                   ->    3 (A) A                    
  0.6472116768       2 (A) B                   ->    3 (A) B                    
  0.0515453549       2 (A) A                   ->    6 (A) A                    
  0.0515453549       2 (A) B                   ->    6 (A) B                    
  0.0035320110       1 (A) A                   ->    3 (A) A                    
  0.0035320110       1 (A) B                   ->    3 (A) B                    
  0.0021157626       1 (A) A                   ->    6 (A) A                    
  0.0021157626       1 (A) B                   ->    6 (A) B                    
  0.2961906270       2 (A) A       2 (A) B     ->    3 (A) A       3 (A) B      
 -0.2961906270       2 (A) A       2 (A) B     ->    3 (A) B       3 (A) A      
 -0.2961906270       2 (A) B       2 (A) A     ->    3 (A) A       3 (A) B      
  0.2961906270       2 (A) B       2 (A) A     ->    3 (A) B       3 (A) A      
 -0.1797308506       2 (A) A       2 (A) B     ->    3 (A) A       6 (A) B      
 -0.1797308506       2 (A) A       2 (A) B     ->    6 (A) A       3 (A) B      
  0.1797308506       2 (A) A       2 (A) B     ->    6 (A) B       3 (A) A      
  0.1797308506       2 (A) A       2 (A) B     ->    3 (A) B       6 (A) A      
  0.1797308506       2 (A) B       2 (A) A     ->    3 (A) A       6 (A) B      
  0.1797308506       2 (A) B       2 (A) A     ->    6 (A) A       3 (A) B      
 -0.1797308506       2 (A) B       2 (A) A     ->    3 (A) B       6 (A) A      
 -0.1797308506       2 (A) B       2 (A) A     ->    6 (A) B       3 (A) A      
 -0.0615846375       2 (A) A       2 (A) B     ->    6 (A) A       6 (A) B      
  0.0615846375       2 (A) A       2 (A) B     ->    6 (A) B       6 (A) A      
  0.0615846375       2 (A) B       2 (A) A     ->    6 (A) A       6 (A) B      
 -0.0615846375       2 (A) B       2 (A) A     ->    6 (A) B       6 (A) A      
  0.0172453021       2 (A) A       2 (A) B     ->    5 (A) A       5 (A) B      
 -0.0172453021       2 (A) A       2 (A) B     ->    5 (A) B       5 (A) A      
 -0.0172453021       2 (A) B       2 (A) A     ->    5 (A) A       5 (A) B      
  0.0172453021       2 (A) B       2 (A) A     ->    5 (A) B       5 (A) A      
  0.0172453020       2 (A) A       2 (A) B     ->    4 (A) A       4 (A) B      
 -0.0172453020       2 (A) A       2 (A) B     ->    4 (A) B       4 (A) A      
 -0.0172453020       2 (A) B       2 (A) A     ->    4 (A) A       4 (A) B      
  0.0172453020       2 (A) B       2 (A) A     ->    4 (A) B       4 (A) A      
 -0.0055092530       1 (A) A       2 (A) B     ->    6 (A) A       3 (A) B      
 -0.0055092530       2 (A) A       1 (A) B     ->    3 (A) A       6 (A) B      
  0.0055092530       1 (A) A       2 (A) B     ->    3 (A) B       6 (A) A      
  0.0055092530       2 (A) A       1 (A) B     ->    6 (A) B       3 (A) A      
  0.0055092530       2 (A) B       1 (A) A     ->    6 (A) A       3 (A) B      
  0.0055092530       1 (A) B       2 (A) A     ->    3 (A) A       6 (A) B      
 -0.0055092530       1 (A) B       2 (A) A     ->    6 (A) B       3 (A) A      
 -0.0055092530       2 (A) B       1 (A) A     ->    3 (A) B       6 (A) A      
  0.0041373823       1 (A) A       2 (A) A     ->    3 (A) A       6 (A) A      
 -0.0041373823       1 (A) A       2 (A) A     ->    6 (A) A       3 (A) A      
 -0.0041373823       2 (A) A       1 (A) A     ->    3 (A) A       6 (A) A      
  0.0041373823       2 (A) A       1 (A) A     ->    6 (A) A       3 (A) A      
  0.0041373823       1 (A) B       2 (A) B     ->    3 (A) B       6 (A) B      
 -0.0041373823       1 (A) B       2 (A) B     ->    6 (A) B       3 (A) B      
 -0.0041373823       2 (A) B       1 (A) B     ->    3 (A) B       6 (A) B      
  0.0041373823       2 (A) B       1 (A) B     ->    6 (A) B       3 (A) B      
 -0.0033579319       1 (A) A       1 (A) B     ->    3 (A) A       3 (A) B      
  0.0033579319       1 (A) A       1 (A) B     ->    3 (A) B       3 (A) A      
  0.0033579319       1 (A) B       1 (A) A     ->    3 (A) A       3 (A) B      
 -0.0033579319       1 (A) B       1 (A) A     ->    3 (A) B       3 (A) A      
 -0.0029960475       1 (A) A       2 (A) B     ->    3 (A) A       3 (A) B      
 -0.0029960475       2 (A) A       1 (A) B     ->    3 (A) A       3 (A) B      
  0.0029960475       1 (A) A       2 (A) B     ->    3 (A) B       3 (A) A      
  0.0029960475       2 (A) A       1 (A) B     ->    3 (A) B       3 (A) A      
  0.0029960475       2 (A) B       1 (A) A     ->    3 (A) A       3 (A) B      
  0.0029960475       1 (A) B       2 (A) A     ->    3 (A) A       3 (A) B      
 -0.0029960475       1 (A) B       2 (A) A     ->    3 (A) B       3 (A) A      
 -0.0029960475       2 (A) B       1 (A) A     ->    3 (A) B       3 (A) A      
 -0.0025843881       1 (A) A       2 (A) B     ->    5 (A) A       5 (A) B      
 -0.0025843881       2 (A) A       1 (A) B     ->    5 (A) A       5 (A) B      
  0.0025843881       1 (A) A       2 (A) B     ->    5 (A) B       5 (A) A      
  0.0025843881       2 (A) A       1 (A) B     ->    5 (A) B       5 (A) A      
  0.0025843881       2 (A) B       1 (A) A     ->    5 (A) A       5 (A) B      
  0.0025843881       1 (A) B       2 (A) A     ->    5 (A) A       5 (A) B      
 -0.0025843881       1 (A) B       2 (A) A     ->    5 (A) B       5 (A) A      
 -0.0025843881       2 (A) B       1 (A) A     ->    5 (A) B       5 (A) A      
 -0.0025843881       1 (A) A       2 (A) B     ->    4 (A) A       4 (A) B      
 -0.0025843881       2 (A) A       1 (A) B     ->    4 (A) A       4 (A) B      
  0.0025843881       1 (A) A       2 (A) B     ->    4 (A) B       4 (A) A      
  0.0025843881       2 (A) A       1 (A) B     ->    4 (A) B       4 (A) A      
  0.0025843881       2 (A) B       1 (A) A     ->    4 (A) A       4 (A) B      
  0.0025843881       1 (A) B       2 (A) A     ->    4 (A) A       4 (A) B      
 -0.0025843881       1 (A) B       2 (A) A     ->    4 (A) B       4 (A) A      
 -0.0025843881       2 (A) B       1 (A) A     ->    4 (A) B       4 (A) A      
 -0.0014595890       1 (A) A       2 (A) B     ->    6 (A) A       6 (A) B      
 -0.0014595890       2 (A) A       1 (A) B     ->    6 (A) A       6 (A) B      
  0.0014595890       1 (A) A       2 (A) B     ->    6 (A) B       6 (A) A      
  0.0014595890       2 (A) A       1 (A) B     ->    6 (A) B       6 (A) A      
  0.0014595890       2 (A) B       1 (A) A     ->    6 (A) A       6 (A) B      
  0.0014595890       1 (A) B       2 (A) A     ->    6 (A) A       6 (A) B      
 -0.0014595890       1 (A) B       2 (A) A     ->    6 (A) B       6 (A) A      
 -0.0014595890       2 (A) B       1 (A) A     ->    6 (A) B       6 (A) A      
  0.0014487671       1 (A) A       1 (A) B     ->    3 (A) A       6 (A) B      
  0.0014487671       1 (A) A       1 (A) B     ->    6 (A) A       3 (A) B      
 -0.0014487671       1 (A) A       1 (A) B     ->    6 (A) B       3 (A) A      
 -0.0014487671       1 (A) A       1 (A) B     ->    3 (A) B       6 (A) A      
 -0.0014487671       1 (A) B       1 (A) A     ->    3 (A) A       6 (A) B      
 -0.0014487671       1 (A) B       1 (A) A     ->    6 (A) A       3 (A) B      
  0.0014487671       1 (A) B       1 (A) A     ->    3 (A) B       6 (A) A      
  0.0014487671       1 (A) B       1 (A) A     ->    6 (A) B       3 (A) A      
 -0.0013896708       1 (A) A       2 (A) B     ->    3 (A) A       6 (A) B      
 -0.0013896708       2 (A) A       1 (A) B     ->    6 (A) A       3 (A) B      
  0.0013896708       1 (A) A       2 (A) B     ->    6 (A) B       3 (A) A      
  0.0013896708       2 (A) A       1 (A) B     ->    3 (A) B       6 (A) A      
  0.0013896708       2 (A) B       1 (A) A     ->    3 (A) A       6 (A) B      
  0.0013896708       1 (A) B       2 (A) A     ->    6 (A) A       3 (A) B      
 -0.0013896708       1 (A) B       2 (A) A     ->    3 (A) B       6 (A) A      
 -0.0013896708       2 (A) B       1 (A) A     ->    6 (A) B       3 (A) A      
  0.0006288877       1 (A) A       1 (A) B     ->    6 (A) A       6 (A) B      
 -0.0006288877       1 (A) A       1 (A) B     ->    6 (A) B       6 (A) A      
 -0.0006288877       1 (A) B       1 (A) A     ->    6 (A) A       6 (A) B      
  0.0006288877       1 (A) B       1 (A) A     ->    6 (A) B       6 (A) A      
  0.0001150596       1 (A) A       1 (A) B     ->    4 (A) A       4 (A) B      
 -0.0001150596       1 (A) A       1 (A) B     ->    4 (A) B       4 (A) A      
 -0.0001150596       1 (A) B       1 (A) A     ->    4 (A) A       4 (A) B      
  0.0001150596       1 (A) B       1 (A) A     ->    4 (A) B       4 (A) A      
  0.0001150596       1 (A) A       1 (A) B     ->    5 (A) A       5 (A) B      
 -0.0001150596       1 (A) A       1 (A) B     ->    5 (A) B       5 (A) A      
 -0.0001150596       1 (A) B       1 (A) A     ->    5 (A) A       5 (A) B      
  0.0001150596       1 (A) B       1 (A) A     ->    5 (A) B       5 (A) A      

              Summary of significant orbitals:

               Number  Type             Irrep      Energy
               1       Occ  Alpha       1 (A)     -2.3578
               2       Occ  Alpha       2 (A)     -0.2589
               1       Occ  Beta        1 (A)     -2.3578
               2       Occ  Beta        2 (A)     -0.2589
               3       Vir  Alpha       3 (A)      0.0747
               4       Vir  Alpha       4 (A)      0.1629
               5       Vir  Alpha       5 (A)      0.1629
               6       Vir  Alpha       6 (A)      0.4607
               3       Vir  Beta        3 (A)      0.0747
               4       Vir  Beta        4 (A)      0.1629
               5       Vir  Beta        5 (A)      0.1629
               6       Vir  Beta        6 (A)      0.4607


 EOMEE transition 2/A
 Total energy = -7.70457173 a.u.  Excitation energy = 4.45324165 eV.
 R0^2 = 0.0000  R1^2 = 0.8476  R2^2 = 0.1524  Res^2 = 4.35e-06
 Conv-d = yes

 Amplitude    Transitions between orbitals
 -0.6509785062       2 (A) A                   ->    5 (A) A                    
 -0.6509785062       2 (A) B                   ->    5 (A) B                    
 -0.0054670459       1 (A) A                   ->    5 (A) A                    
 -0.0054670459       1 (A) B                   ->    5 (A) B                    
  0.2187008554       2 (A) A       2 (A) B     ->    5 (A) A       6 (A) B      
  0.2187008554       2 (A) A       2 (A) B     ->    6 (A) A       5 (A) B      
 -0.2187008554       2 (A) A       2 (A) B     ->    6 (A) B       5 (A) A      
 -0.2187008554       2 (A) A       2 (A) B     ->    5 (A) B       6 (A) A      
 -0.2187008554       2 (A) B       2 (A) A     ->    5 (A) A       6 (A) B      
 -0.2187008554       2 (A) B       2 (A) A     ->    6 (A) A       5 (A) B      
  0.2187008554       2 (A) B       2 (A) A     ->    5 (A) B       6 (A) A      
  0.2187008554       2 (A) B       2 (A) A     ->    6 (A) B       5 (A) A      
 -0.1683168877       2 (A) A       2 (A) B     ->    3 (A) A       5 (A) B      
 -0.1683168877       2 (A) A       2 (A) B     ->    5 (A) A       3 (A) B      
  0.1683168877       2 (A) A       2 (A) B     ->    5 (A) B       3 (A) A      
  0.1683168877       2 (A) A       2 (A) B     ->    3 (A) B       5 (A) A      
  0.1683168877       2 (A) B       2 (A) A     ->    3 (A) A       5 (A) B      
  0.1683168877       2 (A) B       2 (A) A     ->    5 (A) A       3 (A) B      
 -0.1683168877       2 (A) B       2 (A) A     ->    3 (A) B       5 (A) A      
 -0.1683168877       2 (A) B       2 (A) A     ->    5 (A) B       3 (A) A      
 -0.0036521262       1 (A) A       2 (A) A     ->    5 (A) A       6 (A) A      
  0.0036521262       1 (A) A       2 (A) A     ->    6 (A) A       5 (A) A      
  0.0036521262       2 (A) A       1 (A) A     ->    5 (A) A       6 (A) A      
 -0.0036521262       2 (A) A       1 (A) A     ->    6 (A) A       5 (A) A      
 -0.0036521262       1 (A) B       2 (A) B     ->    5 (A) B       6 (A) B      
  0.0036521262       1 (A) B       2 (A) B     ->    6 (A) B       5 (A) B      
  0.0036521262       2 (A) B       1 (A) B     ->    5 (A) B       6 (A) B      
 -0.0036521262       2 (A) B       1 (A) B     ->    6 (A) B       5 (A) B      
  0.0027605312       1 (A) A       2 (A) B     ->    6 (A) A       5 (A) B      
  0.0027605312       2 (A) A       1 (A) B     ->    5 (A) A       6 (A) B      
 -0.0027605312       1 (A) A       2 (A) B     ->    5 (A) B       6 (A) A      
 -0.0027605312       2 (A) A       1 (A) B     ->    6 (A) B       5 (A) A      
 -0.0027605312       2 (A) B       1 (A) A     ->    6 (A) A       5 (A) B      
 -0.0027605312       1 (A) B       2 (A) A     ->    5 (A) A       6 (A) B      
  0.0027605312       1 (A) B       2 (A) A     ->    6 (A) B       5 (A) A      
  0.0027605312       2 (A) B       1 (A) A     ->    5 (A) B       6 (A) A      
  0.0023247600       1 (A) A       2 (A) B     ->    5 (A) A       3 (A) B      
  0.0023247600       2 (A) A       1 (A) B     ->    3 (A) A       5 (A) B      
 -0.0023247600       1 (A) A       2 (A) B     ->    3 (A) B       5 (A) A      
 -0.0023247600       2 (A) A       1 (A) B     ->    5 (A) B       3 (A) A      
 -0.0023247600       2 (A) B       1 (A) A     ->    5 (A) A       3 (A) B      
 -0.0023247600       1 (A) B       2 (A) A     ->    3 (A) A       5 (A) B      
  0.0023247600       1 (A) B       2 (A) A     ->    5 (A) B       3 (A) A      
  0.0023247600       2 (A) B       1 (A) A     ->    3 (A) B       5 (A) A      
 -0.0017319028       1 (A) A       1 (A) B     ->    5 (A) A       6 (A) B      
 -0.0017319028       1 (A) A       1 (A) B     ->    6 (A) A       5 (A) B      
  0.0017319028       1 (A) A       1 (A) B     ->    6 (A) B       5 (A) A      
  0.0017319028       1 (A) A       1 (A) B     ->    5 (A) B       6 (A) A      
  0.0017319028       1 (A) B       1 (A) A     ->    5 (A) A       6 (A) B      
  0.0017319028       1 (A) B       1 (A) A     ->    6 (A) A       5 (A) B      
 -0.0017319028       1 (A) B       1 (A) A     ->    5 (A) B       6 (A) A      
 -0.0017319028       1 (A) B       1 (A) A     ->    6 (A) B       5 (A) A      
  0.0017290994       1 (A) A       1 (A) B     ->    3 (A) A       5 (A) B      
  0.0017290994       1 (A) A       1 (A) B     ->    5 (A) A       3 (A) B      
 -0.0017290994       1 (A) A       1 (A) B     ->    5 (A) B       3 (A) A      
 -0.0017290994       1 (A) A       1 (A) B     ->    3 (A) B       5 (A) A      
 -0.0017290994       1 (A) B       1 (A) A     ->    3 (A) A       5 (A) B      
 -0.0017290994       1 (A) B       1 (A) A     ->    5 (A) A       3 (A) B      
  0.0017290994       1 (A) B       1 (A) A     ->    3 (A) B       5 (A) A      
  0.0017290994       1 (A) B       1 (A) A     ->    5 (A) B       3 (A) A      
  0.0017014718       1 (A) A       2 (A) B     ->    3 (A) A       5 (A) B      
  0.0017014718       2 (A) A       1 (A) B     ->    5 (A) A       3 (A) B      
 -0.0017014718       1 (A) A       2 (A) B     ->    5 (A) B       3 (A) A      
 -0.0017014718       2 (A) A       1 (A) B     ->    3 (A) B       5 (A) A      
 -0.0017014718       2 (A) B       1 (A) A     ->    3 (A) A       5 (A) B      
 -0.0017014718       1 (A) B       2 (A) A     ->    5 (A) A       3 (A) B      
  0.0017014718       1 (A) B       2 (A) A     ->    3 (A) B       5 (A) A      
  0.0017014718       2 (A) B       1 (A) A     ->    5 (A) B       3 (A) A      
 -0.0009164409       1 (A) A       2 (A) B     ->    5 (A) A       6 (A) B      
 -0.0009164409       2 (A) A       1 (A) B     ->    6 (A) A       5 (A) B      
  0.0009164409       1 (A) A       2 (A) B     ->    6 (A) B       5 (A) A      
  0.0009164409       2 (A) A       1 (A) B     ->    5 (A) B       6 (A) A      
  0.0009164409       2 (A) B       1 (A) A     ->    5 (A) A       6 (A) B      
  0.0009164409       1 (A) B       2 (A) A     ->    6 (A) A       5 (A) B      
 -0.0009164409       1 (A) B       2 (A) A     ->    5 (A) B       6 (A) A      
 -0.0009164409       2 (A) B       1 (A) A     ->    6 (A) B       5 (A) A      
 -0.0006081319       1 (A) A       2 (A) A     ->    3 (A) A       5 (A) A      
  0.0006081319       1 (A) A       2 (A) A     ->    5 (A) A       3 (A) A      
  0.0006081319       2 (A) A       1 (A) A     ->    3 (A) A       5 (A) A      
 -0.0006081319       2 (A) A       1 (A) A     ->    5 (A) A       3 (A) A      
 -0.0006081319       1 (A) B       2 (A) B     ->    3 (A) B       5 (A) B      
  0.0006081319       1 (A) B       2 (A) B     ->    5 (A) B       3 (A) B      
  0.0006081319       2 (A) B       1 (A) B     ->    3 (A) B       5 (A) B      
 -0.0006081319       2 (A) B       1 (A) B     ->    5 (A) B       3 (A) B      

              Summary of significant orbitals:

               Number  Type             Irrep      Energy
               1       Occ  Alpha       1 (A)     -2.3578
               2       Occ  Alpha       2 (A)     -0.2589
               1       Occ  Beta        1 (A)     -2.3578
               2       Occ  Beta        2 (A)     -0.2589
               3       Vir  Alpha       3 (A)      0.0747
               5       Vir  Alpha       5 (A)      0.1629
               6       Vir  Alpha       6 (A)      0.4607
               3       Vir  Beta        3 (A)      0.0747
               5       Vir  Beta        5 (A)      0.1629
               6       Vir  Beta        6 (A)      0.4607


 EOMEE transition 3/A
 Total energy = -7.70457173 a.u.  Excitation energy = 4.45324166 eV.
 R0^2 = 0.0000  R1^2 = 0.8476  R2^2 = 0.1524  Res^2 = 4.35e-06
 Conv-d = yes

 Amplitude    Transitions between orbitals
 -0.6509785062       2 (A) A                   ->    4 (A) A                    
 -0.6509785062       2 (A) B                   ->    4 (A) B                    
 -0.0054670459       1 (A) A                   ->    4 (A) A                    
 -0.0054670459       1 (A) B                   ->    4 (A) B                    
  0.2187008554       2 (A) A       2 (A) B     ->    4 (A) A       6 (A) B      
  0.2187008554       2 (A) A       2 (A) B     ->    6 (A) A       4 (A) B      
 -0.2187008554       2 (A) A       2 (A) B     ->    6 (A) B       4 (A) A      
 -0.2187008554       2 (A) A       2 (A) B     ->    4 (A) B       6 (A) A      
 -0.2187008554       2 (A) B       2 (A) A     ->    4 (A) A       6 (A) B      
 -0.2187008554       2 (A) B       2 (A) A     ->    6 (A) A       4 (A) B      
  0.2187008554       2 (A) B       2 (A) A     ->    4 (A) B       6 (A) A      
  0.2187008554       2 (A) B       2 (A) A     ->    6 (A) B       4 (A) A      
 -0.1683168877       2 (A) A       2 (A) B     ->    3 (A) A       4 (A) B      
 -0.1683168877       2 (A) A       2 (A) B     ->    4 (A) A       3 (A) B      
  0.1683168877       2 (A) A       2 (A) B     ->    4 (A) B       3 (A) A      
  0.1683168877       2 (A) A       2 (A) B     ->    3 (A) B       4 (A) A      
  0.1683168877       2 (A) B       2 (A) A     ->    3 (A) A       4 (A) B      
  0.1683168877       2 (A) B       2 (A) A     ->    4 (A) A       3 (A) B      
 -0.1683168877       2 (A) B       2 (A) A     ->    3 (A) B       4 (A) A      
 -0.1683168877       2 (A) B       2 (A) A     ->    4 (A) B       3 (A) A      
 -0.0036521262       1 (A) A       2 (A) A     ->    4 (A) A       6 (A) A      
  0.0036521262       1 (A) A       2 (A) A     ->    6 (A) A       4 (A) A      
  0.0036521262       2 (A) A       1 (A) A     ->    4 (A) A       6 (A) A      
 -0.0036521262       2 (A) A       1 (A) A     ->    6 (A) A       4 (A) A      
 -0.0036521262       1 (A) B       2 (A) B     ->    4 (A) B       6 (A) B      
  0.0036521262       1 (A) B       2 (A) B     ->    6 (A) B       4 (A) B      
  0.0036521262       2 (A) B       1 (A) B     ->    4 (A) B       6 (A) B      
 -0.0036521262       2 (A) B       1 (A) B     ->    6 (A) B       4 (A) B      
  0.0027605312       1 (A) A       2 (A) B     ->    6 (A) A       4 (A) B      
  0.0027605312       2 (A) A       1 (A) B     ->    4 (A) A       6 (A) B      
 -0.0027605312       1 (A) A       2 (A) B     ->    4 (A) B       6 (A) A      
 -0.0027605312       2 (A) A       1 (A) B     ->    6 (A) B       4 (A) A      
 -0.0027605312       2 (A) B       1 (A) A     ->    6 (A) A       4 (A) B      
 -0.0027605312       1 (A) B       2 (A) A     ->    4 (A) A       6 (A) B      
  0.0027605312       1 (A) B       2 (A) A     ->    6 (A) B       4 (A) A      
  0.0027605312       2 (A) B       1 (A) A     ->    4 (A) B       6 (A) A      
  0.0023247600       1 (A) A       2 (A) B     ->    4 (A) A       3 (A) B      
  0.0023247600       2 (A) A       1 (A) B     ->    3 (A) A       4 (A) B      
 -0.0023247600       1 (A) A       2 (A) B     ->    3 (A) B       4 (A) A      
 -0.0023247600       2 (A) A       1 (A) B     ->    4 (A) B       3 (A) A      
 -0.0023247600       2 (A) B       1 (A) A     ->    4 (A) A       3 (A) B      
 -0.0023247600       1 (A) B       2 (A) A     ->    3 (A) A       4 (A) B      
  0.0023247600       1 (A) B       2 (A) A     ->    4 (A) B       3 (A) A      
  0.0023247600       2 (A) B       1 (A) A     ->    3 (A) B       4 (A) A      
 -0.0017319028       1 (A) A       1 (A) B     ->    4 (A) A       6 (A) B      
 -0.0017319028       1 (A) A       1 (A) B     ->    6 (A) A       4 (A) B      
  0.0017319028       1 (A) A       1 (A) B     ->    6 (A) B       4 (A) A      
  0.0017319028       1 (A) A       1 (A) B     ->    4 (A) B       6 (A) A      
  0.0017319028       1 (A) B       1 (A) A     ->    4 (A) A       6 (A) B      
  0.0017319028       1 (A) B       1 (A) A     ->    6 (A) A       4 (A) B      
 -0.0017319028       1 (A) B       1 (A) A     ->    4 (A) B       6 (A) A      
 -0.0017319028       1 (A) B       1 (A) A     ->    6 (A) B       4 (A) A      
  0.0017290994       1 (A) A       1 (A) B     ->    3 (A) A       4 (A) B      
  0.0017290994       1 (A) A       1 (A) B     ->    4 (A) A       3 (A) B      
 -0.0017290994       1 (A) A       1 (A) B     ->    4 (A) B       3 (A) A      
 -0.0017290994       1 (A) A       1 (A) B     ->    3 (A) B       4 (A) A      
 -0.0017290994       1 (A) B       1 (A) A     ->    3 (A) A       4 (A) B      
 -0.0017290994       1 (A) B       1 (A) A     ->    4 (A) A       3 (A) B      
  0.0017290994       1 (A) B       1 (A) A     ->    3 (A) B       4 (A) A      
  0.0017290994       1 (A) B       1 (A) A     ->    4 (A) B       3 (A) A      
  0.0017014718       1 (A) A       2 (A) B     ->    3 (A) A       4 (A) B      
  0.0017014718       2 (A) A       1 (A) B     ->    4 (A) A       3 (A) B      
 -0.0017014718       1 (A) A       2 (A) B     ->    4 (A) B       3 (A) A      
 -0.0017014718       2 (A) A       1 (A) B     ->    3 (A) B       4 (A) A      
 -0.0017014718       2 (A) B       1 (A) A     ->    3 (A) A       4 (A) B      
 -0.0017014718       1 (A) B       2 (A) A     ->    4 (A) A       3 (A) B      
  0.0017014718       1 (A) B       2 (A) A     ->    3 (A) B       4 (A) A      
  0.0017014718       2 (A) B       1 (A) A     ->    4 (A) B       3 (A) A      
 -0.0009164409       1 (A) A       2 (A) B     ->    4 (A) A       6 (A) B      
 -0.0009164409       2 (A) A       1 (A) B     ->    6 (A) A       4 (A) B      
  0.0009164409       1 (A) A       2 (A) B     ->    6 (A) B       4 (A) A      
  0.0009164409       2 (A) A       1 (A) B     ->    4 (A) B       6 (A) A      
  0.0009164409       2 (A) B       1 (A) A     ->    4 (A) A       6 (A) B      
  0.0009164409       1 (A) B       2 (A) A     ->    6 (A) A       4 (A) B      
 -0.0009164409       1 (A) B       2 (A) A     ->    4 (A) B       6 (A) A      
 -0.0009164409       2 (A) B       1 (A) A     ->    6 (A) B       4 (A) A      
 -0.0006081319       1 (A) A       2 (A) A     ->    3 (A) A       4 (A) A      
  0.0006081319       1 (A) A       2 (A) A     ->    4 (A) A       3 (A) A      
  0.0006081319       2 (A) A       1 (A) A     ->    3 (A) A       4 (A) A      
 -0.0006081319       2 (A) A       1 (A) A     ->    4 (A) A       3 (A) A      
 -0.0006081319       1 (A) B       2 (A) B     ->    3 (A) B       4 (A) B      
  0.0006081319       1 (A) B       2 (A) B     ->    4 (A) B       3 (A) B      
  0.0006081319       2 (A) B       1 (A) B     ->    3 (A) B       4 (A) B      
 -0.0006081319       2 (A) B       1 (A) B     ->    4 (A) B       3 (A) B      

              Summary of significant orbitals:

               Number  Type             Irrep      Energy
               1       Occ  Alpha       1 (A)     -2.3578
               2       Occ  Alpha       2 (A)     -0.2589
               1       Occ  Beta        1 (A)     -2.3578
               2       Occ  Beta        2 (A)     -0.2589
               3       Vir  Alpha       3 (A)      0.0747
               4       Vir  Alpha       4 (A)      0.1629
               6       Vir  Alpha       6 (A)      0.4607
               3       Vir  Beta        3 (A)      0.0747
               4       Vir  Beta        4 (A)      0.1629
               6       Vir  Beta        6 (A)      0.4607


 EEs and amplitudes of EOMEE has be exported to fchk file
Running a double precision version
      EOM-CCSD/MP2 left amplitudes will be solved using Davidson.
        Amplitudes will be solved using MOM  algorithm.
     Hard-coded thresholds: 
     LinDepThresh=1.00e-15  NormThresh=1.00e-06  ReorthogonThresh=1.00e-02

      Roots     MaxVec    MaxIter   Precond   Conv      Shift    
      3         120       60        1         1.00e-05  0.00e+00  
 ------------------------------------------------------------------------------
      Iter ConvRoots NVecs ResNorm Current eigenvalues (eV)
 ------------------------------------------------------------------------------
      0    0      3     1.08e-03   3.1166   4.4532   4.4532   
      1    0      6     4.16e-04   3.1174   4.4543   4.4543   
      2    2      9     1.18e-05   3.1175   4.4546*  4.4546*  
      3    3      10    1.95e-06   3.1174*  4.4546*  4.4546*  

     Davidson procedure converged

biorthogonolize_left_to_right(): degenerate block detected, ndeg=2

 Excited state properties for  EOMEE-CCSD transition 1/A
 Dipole moment (a.u.): 1.646044 (X 0.000000, Y 0.000000, Z 1.646044)
 R-squared (a.u.): 27.156733 (XX 4.118147, YY 4.118147, ZZ 18.920439)
 Gauge origin (a.u.): (0.000000, 0.000000, 0.000000)
 Angular momentum (a.u.) against gauge origin: 
 (X 0.000000i, Y 0.000000i, Z 0.000000i)
 Traces of the OPDMs: Tr(AA) 2.000000, Tr(BB) 2.000000

 Excited state properties for  EOMEE-CCSD transition 2/A
 Dipole moment (a.u.): 0.149050 (X 0.000000, Y 0.000000, Z 0.149050)
 R-squared (a.u.): 24.210627 (XX 5.848720, YY 5.848722, ZZ 12.513185)
 Gauge origin (a.u.): (0.000000, 0.000000, 0.000000)
 Angular momentum (a.u.) against gauge origin: 
 (X 0.000000i, Y 0.000000i, Z 0.000000i)
 Traces of the OPDMs: Tr(AA) 2.000000, Tr(BB) 2.000000

 Excited state properties for  EOMEE-CCSD transition 3/A
 Dipole moment (a.u.): 0.149050 (X 0.000000, Y 0.000000, Z 0.149050)
 R-squared (a.u.): 24.210627 (XX 5.848722, YY 5.848720, ZZ 12.513185)
 Gauge origin (a.u.): (0.000000, 0.000000, 0.000000)
 Angular momentum (a.u.) against gauge origin: 
 (X 0.000000i, Y 0.000000i, Z 0.000000i)
 Traces of the OPDMs: Tr(AA) 2.000000, Tr(BB) 2.000000

        Solving for EOMEE-CCSD A triplet states.

Running a double precision version
        EOMEE-CCSD/MP2 right amplitudes will be solved using Davidson.
        Amplitudes will be solved using standard  algorithm.
     Hard-coded thresholds: 
     LinDepThresh=1.00e-15  NormThresh=1.00e-06  ReorthogonThresh=1.00e-02

      Roots     MaxVec    MaxIter   Precond   Conv      Shift    
      3         120       60        1         1.00e-05  0.00e+00  
 ------------------------------------------------------------------------------
      Iter ConvRoots NVecs ResNorm Current eigenvalues (eV)
 ------------------------------------------------------------------------------
      0    0      3     2.04e-02   3.8970   5.2936   5.2936   
      1    0      6     2.14e-02   2.7578   4.2836   4.2836   
      2    0      9     7.37e-04   2.5493   4.0901   4.0901   
      3    0      12    7.99e-05   2.5371   4.0894   4.0894   
      4    3      15    1.34e-06   2.5341*  4.0917*  4.0917*  

     Davidson procedure converged

 EOMEE transition 1/A
 Total energy = -7.77509931 a.u.  Excitation energy = 2.53408877 eV.
 R0^2 = 0.0000  R1^2 = 0.9397  R2^2 = 0.0603  Res^2 = 2.90e-06
 Conv-d = yes

 Amplitude    Transitions between orbitals
  0.6726127106       2 (A) A                   ->    3 (A) A                    
 -0.6726127106       2 (A) B                   ->    3 (A) B                    
 -0.1320268199       2 (A) A                   ->    6 (A) A                    
  0.1320268199       2 (A) B                   ->    6 (A) B                    
  0.0033825392       1 (A) A                   ->    3 (A) A                    
 -0.0033825392       1 (A) B                   ->    3 (A) B                    
  0.0008624705       1 (A) A                   ->    6 (A) A                    
 -0.0008624705       1 (A) B                   ->    6 (A) B                    
 -0.1733507023       2 (A) A       2 (A) B     ->    3 (A) A       6 (A) B      
  0.1733507023       2 (A) A       2 (A) B     ->    6 (A) A       3 (A) B      
  0.1733507023       2 (A) A       2 (A) B     ->    6 (A) B       3 (A) A      
 -0.1733507023       2 (A) A       2 (A) B     ->    3 (A) B       6 (A) A      
  0.1733507023       2 (A) B       2 (A) A     ->    3 (A) A       6 (A) B      
 -0.1733507023       2 (A) B       2 (A) A     ->    6 (A) A       3 (A) B      
  0.1733507023       2 (A) B       2 (A) A     ->    3 (A) B       6 (A) A      
 -0.1733507023       2 (A) B       2 (A) A     ->    6 (A) B       3 (A) A      
  0.0060250786       1 (A) A       2 (A) B     ->    6 (A) A       3 (A) B      
 -0.0060250786       2 (A) A       1 (A) B     ->    3 (A) A       6 (A) B      
 -0.0060250786       1 (A) A       2 (A) B     ->    3 (A) B       6 (A) A      
  0.0060250786       2 (A) A       1 (A) B     ->    6 (A) B       3 (A) A      
 -0.0060250786       2 (A) B       1 (A) A     ->    6 (A) A       3 (A) B      
  0.0060250786       1 (A) B       2 (A) A     ->    3 (A) A       6 (A) B      
 -0.0060250786       1 (A) B       2 (A) A     ->    6 (A) B       3 (A) A      
  0.0060250786       2 (A) B       1 (A) A     ->    3 (A) B       6 (A) A      
  0.0043814657       1 (A) A       2 (A) A     ->    3 (A) A       6 (A) A      
 -0.0043814657       1 (A) A       2 (A) A     ->    6 (A) A       3 (A) A      
 -0.0043814657       2 (A) A       1 (A) A     ->    3 (A) A       6 (A) A      
  0.0043814657       2 (A) A       1 (A) A     ->    6 (A) A       3 (A) A      
 -0.0043814657       1 (A) B       2 (A) B     ->    3 (A) B       6 (A) B      
  0.0043814657       1 (A) B       2 (A) B     ->    6 (A) B       3 (A) B      
  0.0043814657       2 (A) B       1 (A) B     ->    3 (A) B       6 (A) B      
 -0.0043814657       2 (A) B       1 (A) B     ->    6 (A) B       3 (A) B      
  0.0038581496       1 (A) A       2 (A) B     ->    3 (A) A       3 (A) B      
 -0.0038581496       2 (A) A       1 (A) B     ->    3 (A) A       3 (A) B      
 -0.0038581496       1 (A) A       2 (A) B     ->    3 (A) B       3 (A) A      
  0.0038581496       2 (A) A       1 (A) B     ->    3 (A) B       3 (A) A      
 -0.0038581496       2 (A) B       1 (A) A     ->    3 (A) A       3 (A) B      
  0.0038581496       1 (A) B       2 (A) A     ->    3 (A) A       3 (A) B      
 -0.0038581496       1 (A) B       2 (A) A     ->    3 (A) B       3 (A) A      
  0.0038581496       2 (A) B       1 (A) A     ->    3 (A) B       3 (A) A      
  0.0035337597       1 (A) A       2 (A) B     ->    5 (A) A       5 (A) B      
 -0.0035337597       2 (A) A       1 (A) B     ->    5 (A) A       5 (A) B      
 -0.0035337597       1 (A) A       2 (A) B     ->    5 (A) B       5 (A) A      
  0.0035337597       2 (A) A       1 (A) B     ->    5 (A) B       5 (A) A      
 -0.0035337597       2 (A) B       1 (A) A     ->    5 (A) A       5 (A) B      
  0.0035337597       1 (A) B       2 (A) A     ->    5 (A) A       5 (A) B      
 -0.0035337597       1 (A) B       2 (A) A     ->    5 (A) B       5 (A) A      
  0.0035337597       2 (A) B       1 (A) A     ->    5 (A) B       5 (A) A      
  0.0035337597       1 (A) A       2 (A) B     ->    4 (A) A       4 (A) B      
 -0.0035337597       2 (A) A       1 (A) B     ->    4 (A) A       4 (A) B      
 -0.0035337597       1 (A) A       2 (A) B     ->    4 (A) B       4 (A) A      
  0.0035337597       2 (A) A       1 (A) B     ->    4 (A) B       4 (A) A      
 -0.0035337597       2 (A) B       1 (A) A     ->    4 (A) A       4 (A) B      
  0.0035337597       1 (A) B       2 (A) A     ->    4 (A) A       4 (A) B      
 -0.0035337597       1 (A) B       2 (A) A     ->    4 (A) B       4 (A) A      
  0.0035337597       2 (A) B       1 (A) A     ->    4 (A) B       4 (A) A      
  0.0013935985       1 (A) A       1 (A) B     ->    3 (A) A       6 (A) B      
 -0.0013935985       1 (A) A       1 (A) B     ->    6 (A) A       3 (A) B      
 -0.0013935985       1 (A) A       1 (A) B     ->    6 (A) B       3 (A) A      
  0.0013935985       1 (A) A       1 (A) B     ->    3 (A) B       6 (A) A      
 -0.0013935985       1 (A) B       1 (A) A     ->    3 (A) A       6 (A) B      
  0.0013935985       1 (A) B       1 (A) A     ->    6 (A) A       3 (A) B      
 -0.0013935985       1 (A) B       1 (A) A     ->    3 (A) B       6 (A) A      
  0.0013935985       1 (A) B       1 (A) A     ->    6 (A) B       3 (A) A      
  0.0007966569       1 (A) A       2 (A) B     ->    3 (A) A       6 (A) B      
 -0.0007966569       2 (A) A       1 (A) B     ->    6 (A) A       3 (A) B      
 -0.0007966569       1 (A) A       2 (A) B     ->    6 (A) B       3 (A) A      
  0.0007966569       2 (A) A       1 (A) B     ->    3 (A) B       6 (A) A      
 -0.0007966569       2 (A) B       1 (A) A     ->    3 (A) A       6 (A) B      
  0.0007966569       1 (A) B       2 (A) A     ->    6 (A) A       3 (A) B      
 -0.0007966569       1 (A) B       2 (A) A     ->    3 (A) B       6 (A) A      
  0.0007966569       2 (A) B       1 (A) A     ->    6 (A) B       3 (A) A      
  0.0006878209       1 (A) A       2 (A) B     ->    6 (A) A       6 (A) B      
 -0.0006878209       2 (A) A       1 (A) B     ->    6 (A) A       6 (A) B      
 -0.0006878209       1 (A) A       2 (A) B     ->    6 (A) B       6 (A) A      
  0.0006878209       2 (A) A       1 (A) B     ->    6 (A) B       6 (A) A      
 -0.0006878209       2 (A) B       1 (A) A     ->    6 (A) A       6 (A) B      
  0.0006878209       1 (A) B       2 (A) A     ->    6 (A) A       6 (A) B      
 -0.0006878209       1 (A) B       2 (A) A     ->    6 (A) B       6 (A) A      
  0.0006878209       2 (A) B       1 (A) A     ->    6 (A) B       6 (A) A      

              Summary of significant orbitals:

               Number  Type             Irrep      Energy
               1       Occ  Alpha       1 (A)     -2.3578
               2       Occ  Alpha       2 (A)     -0.2589
               1       Occ  Beta        1 (A)     -2.3578
               2       Occ  Beta        2 (A)     -0.2589
               3       Vir  Alpha       3 (A)      0.0747
               4       Vir  Alpha       4 (A)      0.1629
               5       Vir  Alpha       5 (A)      0.1629
               6       Vir  Alpha       6 (A)      0.4607
               3       Vir  Beta        3 (A)      0.0747
               4       Vir  Beta        4 (A)      0.1629
               5       Vir  Beta        5 (A)      0.1629
               6       Vir  Beta        6 (A)      0.4607


 EOMEE transition 2/A
 Total energy = -7.71785879 a.u.  Excitation energy = 4.09168229 eV.
 R0^2 = 0.0000  R1^2 = 0.8914  R2^2 = 0.1086  Res^2 = 5.61e-07
 Conv-d = yes

 Amplitude    Transitions between orbitals
 -0.6676049444       2 (A) A                   ->    5 (A) A                    
  0.6676049444       2 (A) B                   ->    5 (A) B                    
 -0.0013437652       1 (A) A                   ->    5 (A) A                    
  0.0013437652       1 (A) B                   ->    5 (A) B                    
  0.1850637151       2 (A) A       2 (A) B     ->    5 (A) A       6 (A) B      
 -0.1850637151       2 (A) A       2 (A) B     ->    6 (A) A       5 (A) B      
 -0.1850637151       2 (A) A       2 (A) B     ->    6 (A) B       5 (A) A      
  0.1850637151       2 (A) A       2 (A) B     ->    5 (A) B       6 (A) A      
 -0.1850637151       2 (A) B       2 (A) A     ->    5 (A) A       6 (A) B      
  0.1850637151       2 (A) B       2 (A) A     ->    6 (A) A       5 (A) B      
 -0.1850637151       2 (A) B       2 (A) A     ->    5 (A) B       6 (A) A      
  0.1850637151       2 (A) B       2 (A) A     ->    6 (A) B       5 (A) A      
  0.1413813789       2 (A) A       2 (A) B     ->    3 (A) A       5 (A) B      
 -0.1413813789       2 (A) A       2 (A) B     ->    5 (A) A       3 (A) B      
 -0.1413813789       2 (A) A       2 (A) B     ->    5 (A) B       3 (A) A      
  0.1413813789       2 (A) A       2 (A) B     ->    3 (A) B       5 (A) A      
 -0.1413813789       2 (A) B       2 (A) A     ->    3 (A) A       5 (A) B      
  0.1413813789       2 (A) B       2 (A) A     ->    5 (A) A       3 (A) B      
 -0.1413813789       2 (A) B       2 (A) A     ->    3 (A) B       5 (A) A      
  0.1413813789       2 (A) B       2 (A) A     ->    5 (A) B       3 (A) A      
 -0.0052317086       1 (A) A       2 (A) A     ->    5 (A) A       6 (A) A      
  0.0052317086       1 (A) A       2 (A) A     ->    6 (A) A       5 (A) A      
  0.0052317086       2 (A) A       1 (A) A     ->    5 (A) A       6 (A) A      
 -0.0052317086       2 (A) A       1 (A) A     ->    6 (A) A       5 (A) A      
  0.0052317086       1 (A) B       2 (A) B     ->    5 (A) B       6 (A) B      
 -0.0052317086       1 (A) B       2 (A) B     ->    6 (A) B       5 (A) B      
 -0.0052317086       2 (A) B       1 (A) B     ->    5 (A) B       6 (A) B      
  0.0052317086       2 (A) B       1 (A) B     ->    6 (A) B       5 (A) B      
 -0.0036101135       1 (A) A       2 (A) B     ->    5 (A) A       3 (A) B      
  0.0036101135       2 (A) A       1 (A) B     ->    3 (A) A       5 (A) B      
  0.0036101135       1 (A) A       2 (A) B     ->    3 (A) B       5 (A) A      
 -0.0036101135       2 (A) A       1 (A) B     ->    5 (A) B       3 (A) A      
  0.0036101135       2 (A) B       1 (A) A     ->    5 (A) A       3 (A) B      
 -0.0036101135       1 (A) B       2 (A) A     ->    3 (A) A       5 (A) B      
  0.0036101135       1 (A) B       2 (A) A     ->    5 (A) B       3 (A) A      
 -0.0036101135       2 (A) B       1 (A) A     ->    3 (A) B       5 (A) A      
 -0.0026335396       1 (A) A       2 (A) B     ->    6 (A) A       5 (A) B      
  0.0026335396       2 (A) A       1 (A) B     ->    5 (A) A       6 (A) B      
  0.0026335396       1 (A) A       2 (A) B     ->    5 (A) B       6 (A) A      
 -0.0026335396       2 (A) A       1 (A) B     ->    6 (A) B       5 (A) A      
  0.0026335396       2 (A) B       1 (A) A     ->    6 (A) A       5 (A) B      
 -0.0026335396       1 (A) B       2 (A) A     ->    5 (A) A       6 (A) B      
  0.0026335396       1 (A) B       2 (A) A     ->    6 (A) B       5 (A) A      
 -0.0026335396       2 (A) B       1 (A) A     ->    5 (A) B       6 (A) A      
  0.0021876099       1 (A) A       2 (A) B     ->    5 (A) A       6 (A) B      
 -0.0021876099       2 (A) A       1 (A) B     ->    6 (A) A       5 (A) B      
 -0.0021876099       1 (A) A       2 (A) B     ->    6 (A) B       5 (A) A      
  0.0021876099       2 (A) A       1 (A) B     ->    5 (A) B       6 (A) A      
 -0.0021876099       2 (A) B       1 (A) A     ->    5 (A) A       6 (A) B      
  0.0021876099       1 (A) B       2 (A) A     ->    6 (A) A       5 (A) B      
 -0.0021876099       1 (A) B       2 (A) A     ->    5 (A) B       6 (A) A      
  0.0021876099       2 (A) B       1 (A) A     ->    6 (A) B       5 (A) A      
 -0.0019670230       1 (A) A       2 (A) B     ->    3 (A) A       5 (A) B      
  0.0019670230       2 (A) A       1 (A) B     ->    5 (A) A       3 (A) B      
  0.0019670230       1 (A) A       2 (A) B     ->    5 (A) B       3 (A) A      
 -0.0019670230       2 (A) A       1 (A) B     ->    3 (A) B       5 (A) A      
  0.0019670230       2 (A) B       1 (A) A     ->    3 (A) A       5 (A) B      
 -0.0019670230       1 (A) B       2 (A) A     ->    5 (A) A       3 (A) B      
  0.0019670230       1 (A) B       2 (A) A     ->    3 (A) B       5 (A) A      
 -0.0019670230       2 (A) B       1 (A) A     ->    5 (A) B       3 (A) A      
 -0.0017365577       1 (A) A       2 (A) A     ->    3 (A) A       5 (A) A      
  0.0017365577       1 (A) A       2 (A) A     ->    5 (A) A       3 (A) A      
  0.0017365577       2 (A) A       1 (A) A     ->    3 (A) A       5 (A) A      
 -0.0017365577       2 (A) A       1 (A) A     ->    5 (A) A       3 (A) A      
  0.0017365577       1 (A) B       2 (A) B     ->    3 (A) B       5 (A) B      
 -0.0017365577       1 (A) B       2 (A) B     ->    5 (A) B       3 (A) B      
 -0.0017365577       2 (A) B       1 (A) B     ->    3 (A) B       5 (A) B      
  0.0017365577       2 (A) B       1 (A) B     ->    5 (A) B       3 (A) B      
 -0.0017090638       1 (A) A       1 (A) B     ->    3 (A) A       5 (A) B      
  0.0017090638       1 (A) A       1 (A) B     ->    5 (A) A       3 (A) B      
  0.0017090638       1 (A) A       1 (A) B     ->    5 (A) B       3 (A) A      
 -0.0017090638       1 (A) A       1 (A) B     ->    3 (A) B       5 (A) A      
  0.0017090638       1 (A) B       1 (A) A     ->    3 (A) A       5 (A) B      
 -0.0017090638       1 (A) B       1 (A) A     ->    5 (A) A       3 (A) B      
  0.0017090638       1 (A) B       1 (A) A     ->    3 (A) B       5 (A) A      
 -0.0017090638       1 (A) B       1 (A) A     ->    5 (A) B       3 (A) A      
 -0.0016214054       1 (A) A       1 (A) B     ->    5 (A) A       6 (A) B      
  0.0016214054       1 (A) A       1 (A) B     ->    6 (A) A       5 (A) B      
  0.0016214054       1 (A) A       1 (A) B     ->    6 (A) B       5 (A) A      
 -0.0016214054       1 (A) A       1 (A) B     ->    5 (A) B       6 (A) A      
  0.0016214054       1 (A) B       1 (A) A     ->    5 (A) A       6 (A) B      
 -0.0016214054       1 (A) B       1 (A) A     ->    6 (A) A       5 (A) B      
  0.0016214054       1 (A) B       1 (A) A     ->    5 (A) B       6 (A) A      
 -0.0016214054       1 (A) B       1 (A) A     ->    6 (A) B       5 (A) A      

              Summary of significant orbitals:

               Number  Type             Irrep      Energy
               1       Occ  Alpha       1 (A)     -2.3578
               2       Occ  Alpha       2 (A)     -0.2589
               1       Occ  Beta        1 (A)     -2.3578
               2       Occ  Beta        2 (A)     -0.2589
               3       Vir  Alpha       3 (A)      0.0747
               5       Vir  Alpha       5 (A)      0.1629
               6       Vir  Alpha       6 (A)      0.4607
               3       Vir  Beta        3 (A)      0.0747
               5       Vir  Beta        5 (A)      0.1629
               6       Vir  Beta        6 (A)      0.4607


 EOMEE transition 3/A
 Total energy = -7.71785879 a.u.  Excitation energy = 4.09168230 eV.
 R0^2 = 0.0000  R1^2 = 0.8914  R2^2 = 0.1086  Res^2 = 5.61e-07
 Conv-d = yes

 Amplitude    Transitions between orbitals
 -0.6676049444       2 (A) A                   ->    4 (A) A                    
  0.6676049444       2 (A) B                   ->    4 (A) B                    
 -0.0013437652       1 (A) A                   ->    4 (A) A                    
  0.0013437652       1 (A) B                   ->    4 (A) B                    
  0.1850637151       2 (A) A       2 (A) B     ->    4 (A) A       6 (A) B      
 -0.1850637151       2 (A) A       2 (A) B     ->    6 (A) A       4 (A) B      
 -0.1850637151       2 (A) A       2 (A) B     ->    6 (A) B       4 (A) A      
  0.1850637151       2 (A) A       2 (A) B     ->    4 (A) B       6 (A) A      
 -0.1850637151       2 (A) B       2 (A) A     ->    4 (A) A       6 (A) B      
  0.1850637151       2 (A) B       2 (A) A     ->    6 (A) A       4 (A) B      
 -0.1850637151       2 (A) B       2 (A) A     ->    4 (A) B       6 (A) A      
  0.1850637151       2 (A) B       2 (A) A     ->    6 (A) B       4 (A) A      
  0.1413813789       2 (A) A       2 (A) B     ->    3 (A) A       4 (A) B      
 -0.1413813789       2 (A) A       2 (A) B     ->    4 (A) A       3 (A) B      
 -0.1413813789       2 (A) A       2 (A) B     ->    4 (A) B       3 (A) A      
  0.1413813789       2 (A) A       2 (A) B     ->    3 (A) B       4 (A) A      
 -0.1413813789       2 (A) B       2 (A) A     ->    3 (A) A       4 (A) B      
  0.1413813789       2 (A) B       2 (A) A     ->    4 (A) A       3 (A) B      
 -0.1413813789       2 (A) B       2 (A) A     ->    3 (A) B       4 (A) A      
  0.1413813789       2 (A) B       2 (A) A     ->    4 (A) B       3 (A) A      
 -0.0052317086       1 (A) A       2 (A) A     ->    4 (A) A       6 (A) A      
  0.0052317086       1 (A) A       2 (A) A     ->    6 (A) A       4 (A) A      
  0.0052317086       2 (A) A       1 (A) A     ->    4 (A) A       6 (A) A      
 -0.0052317086       2 (A) A       1 (A) A     ->    6 (A) A       4 (A) A      
  0.0052317086       1 (A) B       2 (A) B     ->    4 (A) B       6 (A) B      
 -0.0052317086       1 (A) B       2 (A) B     ->    6 (A) B       4 (A) B      
 -0.0052317086       2 (A) B       1 (A) B     ->    4 (A) B       6 (A) B      
  0.0052317086       2 (A) B       1 (A) B     ->    6 (A) B       4 (A) B      
 -0.0036101135       1 (A) A       2 (A) B     ->    4 (A) A       3 (A) B      
  0.0036101135       2 (A) A       1 (A) B     ->    3 (A) A       4 (A) B      
  0.0036101135       1 (A) A       2 (A) B     ->    3 (A) B       4 (A) A      
 -0.0036101135       2 (A) A       1 (A) B     ->    4 (A) B       3 (A) A      
  0.0036101135       2 (A) B       1 (A) A     ->    4 (A) A       3 (A) B      
 -0.0036101135       1 (A) B       2 (A) A     ->    3 (A) A       4 (A) B      
  0.0036101135       1 (A) B       2 (A) A     ->    4 (A) B       3 (A) A      
 -0.0036101135       2 (A) B       1 (A) A     ->    3 (A) B       4 (A) A      
 -0.0026335396       1 (A) A       2 (A) B     ->    6 (A) A       4 (A) B      
  0.0026335396       2 (A) A       1 (A) B     ->    4 (A) A       6 (A) B      
  0.0026335396       1 (A) A       2 (A) B     ->    4 (A) B       6 (A) A      
 -0.0026335396       2 (A) A       1 (A) B     ->    6 (A) B       4 (A) A      
  0.0026335396       2 (A) B       1 (A) A     ->    6 (A) A       4 (A) B      
 -0.0026335396       1 (A) B       2 (A) A     ->    4 (A) A       6 (A) B      
  0.0026335396       1 (A) B       2 (A) A     ->    6 (A) B       4 (A) A      
 -0.0026335396       2 (A) B       1 (A) A     ->    4 (A) B       6 (A) A      
  0.0021876099       1 (A) A       2 (A) B     ->    4 (A) A       6 (A) B      
 -0.0021876099       2 (A) A       1 (A) B     ->    6 (A) A       4 (A) B      
 -0.0021876099       1 (A) A       2 (A) B     ->    6 (A) B       4 (A) A      
  0.0021876099       2 (A) A       1 (A) B     ->    4 (A) B       6 (A) A      
 -0.0021876099       2 (A) B       1 (A) A     ->    4 (A) A       6 (A) B      
  0.0021876099       1 (A) B       2 (A) A     ->    6 (A) A       4 (A) B      
 -0.0021876099       1 (A) B       2 (A) A     ->    4 (A) B       6 (A) A      
  0.0021876099       2 (A) B       1 (A) A     ->    6 (A) B       4 (A) A      
 -0.0019670230       1 (A) A       2 (A) B     ->    3 (A) A       4 (A) B      
  0.0019670230       2 (A) A       1 (A) B     ->    4 (A) A       3 (A) B      
  0.0019670230       1 (A) A       2 (A) B     ->    4 (A) B       3 (A) A      
 -0.0019670230       2 (A) A       1 (A) B     ->    3 (A) B       4 (A) A      
  0.0019670230       2 (A) B       1 (A) A     ->    3 (A) A       4 (A) B      
 -0.0019670230       1 (A) B       2 (A) A     ->    4 (A) A       3 (A) B      
  0.0019670230       1 (A) B       2 (A) A     ->    3 (A) B       4 (A) A      
 -0.0019670230       2 (A) B       1 (A) A     ->    4 (A) B       3 (A) A      
 -0.0017365577       1 (A) A       2 (A) A     ->    3 (A) A       4 (A) A      
  0.0017365577       1 (A) A       2 (A) A     ->    4 (A) A       3 (A) A      
  0.0017365577       2 (A) A       1 (A) A     ->    3 (A) A       4 (A) A      
 -0.0017365577       2 (A) A       1 (A) A     ->    4 (A) A       3 (A) A      
  0.0017365577       1 (A) B       2 (A) B     ->    3 (A) B       4 (A) B      
 -0.0017365577       1 (A) B       2 (A) B     ->    4 (A) B       3 (A) B      
 -0.0017365577       2 (A) B       1 (A) B     ->    3 (A) B       4 (A) B      
  0.0017365577       2 (A) B       1 (A) B     ->    4 (A) B       3 (A) B      
 -0.0017090638       1 (A) A       1 (A) B     ->    3 (A) A       4 (A) B      
  0.0017090638       1 (A) A       1 (A) B     ->    4 (A) A       3 (A) B      
  0.0017090638       1 (A) A       1 (A) B     ->    4 (A) B       3 (A) A      
 -0.0017090638       1 (A) A       1 (A) B     ->    3 (A) B       4 (A) A      
  0.0017090638       1 (A) B       1 (A) A     ->    3 (A) A       4 (A) B      
 -0.0017090638       1 (A) B       1 (A) A     ->    4 (A) A       3 (A) B      
  0.0017090638       1 (A) B       1 (A) A     ->    3 (A) B       4 (A) A      
 -0.0017090638       1 (A) B       1 (A) A     ->    4 (A) B       3 (A) A      
 -0.0016214054       1 (A) A       1 (A) B     ->    4 (A) A       6 (A) B      
  0.0016214054       1 (A) A       1 (A) B     ->    6 (A) A       4 (A) B      
  0.0016214054       1 (A) A       1 (A) B     ->    6 (A) B       4 (A) A      
 -0.0016214054       1 (A) A       1 (A) B     ->    4 (A) B       6 (A) A      
  0.0016214054       1 (A) B       1 (A) A     ->    4 (A) A       6 (A) B      
 -0.0016214054       1 (A) B       1 (A) A     ->    6 (A) A       4 (A) B      
  0.0016214054       1 (A) B       1 (A) A     ->    4 (A) B       6 (A) A      
 -0.0016214054       1 (A) B       1 (A) A     ->    6 (A) B       4 (A) A      

              Summary of significant orbitals:

               Number  Type             Irrep      Energy
               1       Occ  Alpha       1 (A)     -2.3578
               2       Occ  Alpha       2 (A)     -0.2589
               1       Occ  Beta        1 (A)     -2.3578
               2       Occ  Beta        2 (A)     -0.2589
               3       Vir  Alpha       3 (A)      0.0747
               4       Vir  Alpha       4 (A)      0.1629
               6       Vir  Alpha       6 (A)      0.4607
               3       Vir  Beta        3 (A)      0.0747
               4       Vir  Beta        4 (A)      0.1629
               6       Vir  Beta        6 (A)      0.4607


 EEs and amplitudes of EOMEE has be exported to fchk file
Running a double precision version
      EOM-CCSD/MP2 left amplitudes will be solved using Davidson.
        Amplitudes will be solved using MOM  algorithm.
     Hard-coded thresholds: 
     LinDepThresh=1.00e-15  NormThresh=1.00e-06  ReorthogonThresh=1.00e-02

      Roots     MaxVec    MaxIter   Precond   Conv      Shift    
      3         120       60        1         1.00e-05  0.00e+00  
 ------------------------------------------------------------------------------
      Iter ConvRoots NVecs ResNorm Current eigenvalues (eV)
 ------------------------------------------------------------------------------
      0    0      3     4.00e-04   2.5341   4.0917   4.0917   
      1    0      6     2.13e-04   2.5339   4.0918   4.0918   
      2    1      9     7.46e-06   2.5340*  4.0918   4.0918   
      3    3      11    6.10e-07   2.5340*  4.0918*  4.0918*  

     Davidson procedure converged

biorthogonolize_left_to_right(): degenerate block detected, ndeg=2

 Excited state properties for  EOMEE-CCSD transition 1/A
 Dipole moment (a.u.): 1.509095 (X 0.000000, Y 0.000000, Z 1.509095)
 R-squared (a.u.): 27.022716 (XX 4.991453, YY 4.991453, ZZ 17.039809)
 Gauge origin (a.u.): (0.000000, 0.000000, 0.000000)
 Angular momentum (a.u.) against gauge origin: 
 (X 0.000000i, Y 0.000000i, Z 0.000000i)
 Traces of the OPDMs: Tr(AA) 2.000000, Tr(BB) 2.000000

 Excited state properties for  EOMEE-CCSD transition 2/A
 Dipole moment (a.u.): 0.225724 (X 0.000000, Y 0.000000, Z 0.225724)
 R-squared (a.u.): 24.194685 (XX 5.969479, YY 5.969470, ZZ 12.255736)
 Gauge origin (a.u.): (0.000000, 0.000000, 0.000000)
 Angular momentum (a.u.) against gauge origin: 
 (X 0.000000i, Y 0.000000i, Z 0.000000i)
 Traces of the OPDMs: Tr(AA) 2.000000, Tr(BB) 2.000000

 Excited state properties for  EOMEE-CCSD transition 3/A
 Dipole moment (a.u.): 0.225724 (X 0.000000, Y 0.000000, Z 0.225724)
 R-squared (a.u.): 24.194685 (XX 5.969470, YY 5.969479, ZZ 12.255736)
 Gauge origin (a.u.): (0.000000, 0.000000, 0.000000)
 Angular momentum (a.u.) against gauge origin: 
 (X 0.000000i, Y 0.000000i, Z 0.000000i)
 Traces of the OPDMs: Tr(AA) 2.000000, Tr(BB) 2.000000

 EOMEE-CCSD calculation:   CPU 2.53 s  wall 1.96 s

 Total ccman2 time:   CPU 3.51 s  wall 2.62 s


 --------------------------------------------------------------

                    Orbital Energies (a.u.)
 --------------------------------------------------------------

 Alpha MOs
 -- Occupied --
 -2.3578  -0.2589
 -- Virtual --
  0.0747   0.1629   0.1629   0.4607
 --------------------------------------------------------------

          Ground-State Mulliken Net Atomic Charges

     Atom                 Charge (a.u.)
  ----------------------------------------
      1 Li                   -0.012542
      2 H                     0.012542
  ----------------------------------------
  Sum of atomic charges =     0.000000

 -----------------------------------------------------------------
                    Cartesian Multipole Moments
 -----------------------------------------------------------------
    Charge (ESU x 10^10)
                -0.0000
    Dipole Moment (Debye)
         X       0.0000      Y       0.0000      Z      -4.5375
       Tot       4.5375
    Quadrupole Moments (Debye-Ang)
        XX      -5.6895     XY       0.0000     YY      -5.6895
        XZ       0.0000     YZ      -0.0000     ZZ      -4.2670
    Octopole Moments (Debye-Ang^2)
       XXX       0.0000    XXY      -0.0000    XYY       0.0000
       YYY      -0.0000    XXZ      -2.9220    XYZ      -0.0000
       YYZ      -2.9220    XZZ       0.0000    YZZ       0.0000
       ZZZ      -8.8869
    Hexadecapole Moments (Debye-Ang^3)
      XXXX     -14.6048   XXXY       0.0000   XXYY      -4.8683
      XYYY       0.0000   YYYY     -14.6048   XXXZ       0.0000
      XXYZ      -0.0000   XYYZ       0.0000   YYYZ      -0.0000
      XXZZ      -6.7469   XYZZ       0.0000   YYZZ      -6.7469
      XZZZ       0.0000   YZZZ      -0.0000   ZZZZ     -24.6737
 -----------------------------------------------------------------
 Total job time:  5.34s(wall), 5.93s(cpu) 
 Thu Aug 11 11:30:21 2022

        *************************************************************
        *                                                           *
        *  Thank you very much for using Q-Chem.  Have a nice day.  *
        *                                                           *
        *************************************************************


