Jobname.Temp
SP        R                             STO-3G              
Number of atoms                            I                3
Charge                                     I                0
Multiplicity                               I                1
Number of electrons                        I               10
Number of alpha electrons                  I                5
Number of beta electrons                   I                5
Atomic numbers                             I   N=           3
           8           1           1
Current cartesian coordinates              R   N=           9
 -5.55111512E-17  3.36079923E-17  3.47076896E-01 -2.24128012E+00 -2.40869660E-16
 -1.38830759E+00  2.24128012E+00 -2.79942788E-17 -1.38830759E+00
Nuclear charges                            R   N=           3
  8.00000000E+00  1.00000000E+00  1.00000000E+00
Number of basis functions                  I                7
Number of contracted shells                I                4
Number of primitive shells                 I               12
Highest angular momentum                   I                1
Largest degree of contraction              I                3
Shell types                                I   N=           4
           0          -1           0           0
Number of primitives per shell             I   N=           4
           3           3           3           3
Shell to atom map                          I   N=           4
           1           1           2           3
Primitive exponents                        R   N=          12
  1.30709320E+02  2.38088610E+01  6.44360830E+00  5.03315130E+00  1.16959610E+00
  3.80389000E-01  3.42525091E+00  6.23913730E-01  1.68855400E-01  3.42525091E+00
  6.23913730E-01  1.68855400E-01
Contraction coefficients                   R   N=          12
  1.54328969E-01  5.35328136E-01  4.44634536E-01 -9.99672287E-02  3.99512825E-01
  7.00115461E-01  1.54328971E-01  5.35328142E-01  4.44634542E-01  1.54328971E-01
  5.35328142E-01  4.44634542E-01
P(S=P) Contraction coefficients            R   N=          12
  0.00000000E+00  0.00000000E+00  0.00000000E+00  1.55916268E-01  6.07683714E-01
  3.91957386E-01  0.00000000E+00  0.00000000E+00  0.00000000E+00  0.00000000E+00
  0.00000000E+00  0.00000000E+00
Coordinates of each shell                  R   N=          12
 -5.55111512E-17  3.36079923E-17  3.47076896E-01 -5.55111512E-17  3.36079923E-17
  3.47076896E-01 -2.24128012E+00 -2.40869660E-16 -1.38830759E+00  2.24128012E+00
 -2.79942788E-17 -1.38830759E+00
Overlap Matrix                             R   N=          28
  1.00000000E+00  2.36703937E-01  1.00000000E+00  4.11794949E-34  0.00000000E+00
  1.00000000E+00 -3.84980621E-33  5.47882949E-33  0.00000000E+00  1.00000000E+00
 -1.93881084E-17  1.02842877E-16  0.00000000E+00  6.94369547E-49  1.00000000E+00
  1.53777541E-02  1.98836243E-01 -1.56146175E-01 -1.91223913E-17 -1.20901286E-01
  1.00000000E+00  1.53777541E-02  1.98836243E-01  1.56146175E-01 -4.29172548E-18
 -1.20901286E-01  6.27037732E-02  1.00000000E+00
Core Hamiltonian Matrix                    R   N=          28
 -3.23208246E+01 -7.51810149E+00 -8.94919711E+00  0.00000000E+00  0.00000000E+00
 -7.17861153E+00  0.00000000E+00  0.00000000E+00  0.00000000E+00 -7.13021254E+00
  7.74016179E-03  9.74819500E-02  0.00000000E+00  0.00000000E+00 -7.15922840E+00
 -4.92855073E-01 -1.35910820E+00  8.77768825E-01 -3.48416847E-18  6.94149723E-01
 -3.50051097E+00 -4.92855073E-01 -1.35910820E+00 -8.77768825E-01 -7.81967817E-19
  6.94149723E-01 -3.10198465E-01 -3.50051097E+00
Orbital Coefficients CCMAN2 Alpha          R   N=          49
  9.94899695E-01  2.10137965E-02  4.25847508E-16 -2.07950756E-18 -1.29749545E-03
 -2.25107724E-03 -2.25107724E-03  2.54417443E-01 -9.82884705E-01 -4.71844785E-16
  5.74622541E-17  1.75963255E-02 -9.03044148E-02 -9.03044148E-02  5.69210793E-02
 -2.81275094E-01 -2.71865863E-14 -6.56124070E-16 -7.07553414E-01  4.19183412E-01
  4.19183412E-01 -2.61336092E-15  1.27051147E-14 -6.34153005E-01 -4.79489892E-16
  3.13984949E-14  4.68884021E-01 -4.68884021E-01  9.67178339E-19  7.43622571E-17
  1.28898374E-16 -1.00000000E+00  1.12359205E-16 -7.46630126E-16  1.85866520E-17
 -6.26680207E-02  3.21774141E-01 -6.06459327E-15  1.20322343E-16 -7.27843643E-01
 -5.84111501E-01 -5.84111501E-01  5.48172618E-16 -3.06005221E-15 -8.07917448E-01
  1.33863366E-16  5.52682899E-15 -5.85553665E-01  5.85553665E-01
Orbital Coefficients CCMAN2 Beta           R   N=          49
  2.54417443E-01 -9.82884705E-01 -4.71844785E-16  5.74622541E-17  1.75963255E-02
 -9.03044148E-02 -9.03044148E-02  5.69210793E-02 -2.81275094E-01 -2.71865863E-14
 -6.56124070E-16 -7.07553414E-01  4.19183412E-01  4.19183412E-01 -2.61336092E-15
  1.27051147E-14 -6.34153005E-01 -4.79489892E-16  3.13984949E-14  4.68884021E-01
 -4.68884021E-01  9.67178339E-19  7.43622571E-17  1.28898374E-16 -1.00000000E+00
  1.12359205E-16 -7.46630126E-16  1.85866520E-17 -6.26680207E-02  3.21774141E-01
 -6.06459327E-15  1.20322343E-16 -7.27843643E-01 -5.84111501E-01 -5.84111501E-01
  5.48172618E-16 -3.06005221E-15 -8.07917448E-01  1.33863366E-16  5.52682899E-15
 -5.85553665E-01  5.85553665E-01  9.94899695E-01  2.10137965E-02  4.25847508E-16
 -2.07950756E-18 -1.29749545E-03 -2.25107724E-03 -2.25107724E-03
EOMEE transition A1 Excitation Energies    R   N=           1
  3.22829959E-01
Number of Active Occ                       I                8
Number of Active Vir                       I                4
Alpha Amplitudes                           R   N=           4
 -4.64746819E-01  3.02537790E-01 -4.64746819E-01  3.02537790E-01
Alpha J Indexes                            I   N=           2
           0           4
Alpha I Indexes                            I   N=           4
           4           9          22          27
EOMEE transition A2 Excitation Energies    R   N=           1
  1.49504763E-01
Number of Active Occ                       I                8
Number of Active Vir                       I                4
Alpha Amplitudes                           R   N=           2
  6.22884518E-01  6.22884518E-01
Alpha J Indexes                            I   N=           2
           0           2
Alpha I Indexes                            I   N=           2
          13          31
EOMEE transition B1 Excitation Energies    R   N=           1
  3.10814683E-01
Number of Active Occ                       I                8
Number of Active Vir                       I                4
Alpha Amplitudes                           R   N=           4
 -4.55363843E-01  4.18222744E-01 -4.55363843E-01  4.18222744E-01
Alpha J Indexes                            I   N=           2
           0           4
Alpha I Indexes                            I   N=           4
           5           8          23          26
EOMEE transition B2 Excitation Energies    R   N=           1
  1.09298601E-01
Number of Active Occ                       I                8
Number of Active Vir                       I                4
Alpha Amplitudes                           R   N=           2
 -6.23275884E-01 -6.23275884E-01
Alpha J Indexes                            I   N=           2
           0           2
Alpha I Indexes                            I   N=           2
          12          30
EOMEE transition A1 Excitation Energies    R   N=           1
  1.21305576E-01
Number of Active Occ                       I                8
Number of Active Vir                       I                4
Alpha Amplitudes                           R   N=           4
  5.91142570E-01  3.82446850E-01 -5.91142570E-01 -3.82446850E-01
Alpha J Indexes                            I   N=           2
           0           4
Alpha I Indexes                            I   N=           4
           4           9          22          27
EOMEE transition A2 Excitation Energies    R   N=           1
  1.32583135E-01
Number of Active Occ                       I                8
Number of Active Vir                       I                4
Alpha Amplitudes                           R   N=           2
 -6.39365943E-01  6.39365943E-01
Alpha J Indexes                            I   N=           2
           0           2
Alpha I Indexes                            I   N=           2
          13          31
EOMEE transition B1 Excitation Energies    R   N=           1
  1.72127878E-01
Number of Active Occ                       I                8
Number of Active Vir                       I                4
Alpha Amplitudes                           R   N=           4
  4.83247661E-01  4.80741968E-01 -4.83247661E-01 -4.80741968E-01
Alpha J Indexes                            I   N=           2
           0           4
Alpha I Indexes                            I   N=           4
           5           8          23          26
EOMEE transition B2 Excitation Energies    R   N=           1
  9.19049462E-02
Number of Active Occ                       I                8
Number of Active Vir                       I                4
Alpha Amplitudes                           R   N=           2
 -6.47665257E-01  6.47665257E-01
Alpha J Indexes                            I   N=           2
           0           2
Alpha I Indexes                            I   N=           2
          12          30
Number of independent functions            I                7
Alpha MO coefficients                      R   N=          49
  9.94899695E-01  2.10137965E-02  4.25847508E-16 -2.07950756E-18 -1.29749545E-03
 -2.25107724E-03 -2.25107724E-03  2.54417443E-01 -9.82884705E-01 -4.71844785E-16
  5.74622541E-17  1.75963255E-02 -9.03044148E-02 -9.03044148E-02 -2.61336092E-15
  1.27051147E-14 -6.34153005E-01 -4.79489892E-16  3.13984949E-14  4.68884021E-01
 -4.68884021E-01  9.67178339E-19  7.43622571E-17  1.28898374E-16 -1.00000000E+00
  1.12359205E-16 -7.46630126E-16  1.85866520E-17  5.69210793E-02 -2.81275094E-01
 -2.71865863E-14 -6.56124070E-16 -7.07553414E-01  4.19183412E-01  4.19183412E-01
 -6.26680207E-02  3.21774141E-01 -6.06459327E-15  1.20322343E-16 -7.27843643E-01
 -5.84111501E-01 -5.84111501E-01  5.48172618E-16 -3.06005221E-15 -8.07917448E-01
  1.33863366E-16  5.52682899E-15 -5.85553665E-01  5.85553665E-01
Alpha Orbital Energies                     R   N=           7
 -2.03089826E+01 -1.14289596E+00 -4.06291790E-01 -3.99826774E-01 -3.70631351E-01
  2.42903093E-01  3.07158821E-01
Total SCF Density                          R   N=          28
  2.11768582E+00 -5.00454250E-01  2.13929568E+00  6.47425109E-16  9.03193021E-16
  8.68941025E-01 -5.39006770E-17  1.13637935E-16  2.78565494E-16  1.99869395E+00
 -5.45136772E-02  2.66464521E-01 -3.52870135E-15  5.65951782E-16  9.48829839E-01
  1.18966830E-02 -1.23300386E-01 -4.50573989E-01  5.34836647E-16 -4.49179154E-01
  8.82667724E-01  1.18966830E-02 -1.23300386E-01  4.50573989E-01 -1.61067012E-16
 -4.49179154E-01 -2.53188826E-02  8.82667724E-01
Pure Switching                             I                1
Dipole_Data                                R   N=           3
  1.31700269E-14 -6.38780636E-16 -5.89739187E-01
Quadrupole_Data                            R   N=           6
 -4.89229780E+00 -1.77351838E-17 -6.39428052E+00 -1.12416327E-14 -4.66247665E-16
 -5.47594536E+00
Octapole_Data                              R   N=          10
  3.73485465E-14 -1.66864522E-16  2.63293555E-15 -1.66634289E-16 -2.80538258E-01
 -1.08528479E-16  3.52314382E-01  1.42554438E-14 -2.66275916E-16  1.09389453E+00
Hexadecapole_Data                          R   N=          15
 -1.52461005E+01 -1.78976315E-16 -3.43048489E+00 -3.04550384E-16 -3.61271337E+00
 -2.99538537E-14 -7.02650050E-17 -2.77862752E-15 -4.59679330E-16 -3.66365098E+00
 -6.62967484E-17 -2.17113354E+00 -1.51676151E-14 -4.70457530E-16 -8.97957684E+00
