                  Welcome to Q-Chem
     A Quantum Leap Into The Future Of Chemistry


 Q-Chem 5.4 (devel), Q-Chem, Inc., Pleasanton, CA (2021)

 E. Epifanovsky,  A. T. B. Gilbert,  Xintian Feng,  Joonho Lee,  Yuezhi Mao,  
 N. Mardirossian,  P. Pokhilko,  A. White,  M. Wormit,  M. P. Coons,  
 A. L. Dempwolff,  Zhengting Gan,  D. Hait,  P. R. Horn,  L. D. Jacobson,  
 I. Kaliman,  J. Kussmann,  A. W. Lange,  Ka Un Lao,  D. S. Levine,  Jie Liu,  
 S. C. McKenzie,  A. F. Morrison,  K. Nanda,  F. Plasser,  D. R. Rehn,  
 M. L. Vidal,  Zhi-Qiang You,  Ying Zhu,  B. Alam,  B. Albrecht,  
 A. Aldossary,  E. Alguire,  J. H. Andersen,  D. Barton,  K. Begam,  A. Behn,  
 Y. A. Bernard,  E. J. Berquist,  H. Burton,  A. Carreras,  K. Carter-Fenk,  
 R. Chakraborty,  A. D. Chien,  K. D. Closser,  V. Cofer-Shabica,  
 S. Dasgupta,  Jia Deng,  M. de Wergifosse,  M. Diedenhofen,  Hainam Do,  
 S. Ehlert,  Po-Tung Fang,  S. Fatehi,  Qingguo Feng,  T. Friedhoff,  
 J. Gayvert,  Qinghui Ge,  G. Gidofalvi,  M. Goldey,  J. Gomes,  
 C. Gonzalez-Espinoza,  S. Gulania,  A. Gunina,  M. W. D. Hanson-Heine,  
 P. H. P. Harbach,  A. W. Hauser,  M. F. Herbst,  M. Hernandez Vera,  
 M. Hodecker,  Z. C. Holden,  S. Houck,  Xunkun Huang,  Kerwin Hui,  
 B. C. Huynh,  M. Ivanov,  Hyunjun Ji,  Hanjie Jiang,  B. Kaduk,  S. Kaehler,  
 K. Khistyaev,  Jaehoon Kim,  P. Klunzinger,  Z. Koczor-Benda,  
 Joong Hoon Koh,  D. Kosenkov,  L. Koulias,  T. Kowalczyk,  C. M. Krauter,  
 K. Kue,  A. Kunitsa,  T. Kus,  A. Landau,  K. V. Lawler,  D. Lefrancois,  
 S. Lehtola,  Rain Li,  Yi-Pei Li,  Jiashu Liang,  M. Liebenthal,  
 Hung-Hsuan Lin,  You-Sheng Lin,  Fenglai Liu,  Kuan-Yu Liu,  
 M. Loipersberger,  A. Luenser,  A. Manjanath,  P. Manohar,  E. Mansoor,  
 S. F. Manzer,  Shan-Ping Mao,  A. V. Marenich,  T. Markovich,  S. Mason,  
 S. A. Maurer,  P. F. McLaughlin,  M. F. S. J. Menger,  J.-M. Mewes,  
 S. A. Mewes,  P. Morgante,  J. W. Mullinax,  K. J. Oosterbaan,  G. Paran,  
 Alexander C. Paul,  Suranjan K. Paul,  F. Pavosevic,  Zheng Pei,  S. Prager,  
 E. I. Proynov,  E. Ramos,  B. Rana,  A. E. Rask,  A. Rettig,  R. M. Richard,  
 F. Rob,  E. Rossomme,  T. Scheele,  M. Scheurer,  M. Schneider,  
 N. Sergueev,  S. M. Sharada,  W. Skomorowski,  D. W. Small,  C. J. Stein,  
 Yu-Chuan Su,  E. J. Sundstrom,  Zhen Tao,  J. Thirman,  T. Tsuchimochi,  
 N. M. Tubman,  S. P. Veccham,  O. Vydrov,  J. Wenzel,  J. Witte,  A. Yamada,  
 Kun Yao,  S. Yeganeh,  S. R. Yost,  A. Zech,  Igor Ying Zhang,  Xing Zhang,  
 Yu Zhang,  D. Zuev,  A. Aspuru-Guzik,  A. T. Bell,  N. A. Besley,  
 K. B. Bravaya,  B. R. Brooks,  D. Casanova,  Jeng-Da Chai,  S. Coriani,  
 C. J. Cramer,  A. E. DePrince, III,  R. A. DiStasio Jr.,  A. Dreuw,  
 B. D. Dunietz,  T. R. Furlani,  W. A. Goddard III,  S. Grimme,  
 S. Hammes-Schiffer,  T. Head-Gordon,  W. J. Hehre,  Chao-Ping Hsu,  
 T.-C. Jagau,  Yousung Jung,  A. Klamt,  Jing Kong,  D. S. Lambrecht,  
 WanZhen Liang,  N. J. Mayhall,  C. W. McCurdy,  J. B. Neaton,  
 C. Ochsenfeld,  J. A. Parkhill,  R. Peverati,  V. A. Rassolov,  Yihan Shao,  
 L. V. Slipchenko,  T. Stauch,  R. P. Steele,  J. E. Subotnik,  
 A. J. W. Thom,  A. Tkatchenko,  D. G. Truhlar,  T. Van Voorhis,  
 T. A. Wesolowski,  K. B. Whaley,  H. L. Woodcock III,  P. M. Zimmerman,  
 S. Faraji,  P. M. W. Gill,  M. Head-Gordon,  J. M. Herbert,  A. I. Krylov

 Additional authors for Version 5.4.1: 
 S. Kotaru,  Shaozhi Li,  Xiangyuan Li,  F. Matz,  A. Molle,  Haisheng Ren,  
 Yingli Su,  Hung-Yi Tsai,  C. Utku,  Fang Wang

 Contributors to earlier versions of Q-Chem not listed above: 
 R. D. Adamson,  B. Austin,  R. Baer,  J. Baker,  G. J. O. Beran,  
 K. Brandhorst,  S. T. Brown,  E. F. C. Byrd,  A. K. Chakraborty,  
 G. K. L. Chan,  Chun-Min Chang,  Yunqing Chen,  C.-L. Cheng,  
 Siu Hung Chien,  D. M. Chipman,  D. L. Crittenden,  H. Dachsel,  
 R. J. Doerksen,  A. D. Dutoi,  R. G. Edgar,  J. Fosso-Tande,  
 L. Fusti-Molnar,  D. Ghosh,  A. Ghysels,  A. Golubeva-Zadorozhnaya,  
 J. Gonthier,  M. S. Gordon,  S. R. Gwaltney,  G. Hawkins,  J. E. Herr,  
 A. Heyden,  S. Hirata,  E. G. Hohenstein,  G. Kedziora,  F. J. Keil,  
 C. Kelley,  Jihan Kim,  R. A. King,  R. Z. Khaliullin,  P. P. Korambath,  
 W. Kurlancheek,  A. Laurent,  A. M. Lee,  M. S. Lee,  S. V. Levchenko,  
 Ching Yeh Lin,  D. Liotard,  E. Livshits,  R. C. Lochan,  I. Lotan,  
 L. A. Martinez-Martinez,  P. E. Maslen,  N. Nair,  D. P. O'Neill,  
 D. Neuhauser,  E. Neuscamman,  C. M. Oana,  R. Olivares-Amaya,  R. Olson,  
 T. M. Perrine,  B. Peters,  P. A. Pieniazek,  A. Prociuk,  Y. M. Rhee,  
 J. Ritchie,  M. A. Rohrdanz,  E. Rosta,  N. J. Russ,  H. F. Schaefer III,  
 M. W. Schmidt,  N. E. Schultz,  S. Sharma,  N. Shenvi,  C. D. Sherrill,  
 A. C. Simmonett,  A. Sodt,  T. Stein,  D. Stuck,  K. S. Thanthiriwatte,  
 V. Vanovschi,  L. Vogt,  Tao Wang,  A. Warshel,  M. A. Watson,  
 C. F. Williams,  Q. Wu,  X. Xu,  Jun Yang,  W. Zhang,  Yan Zhao

 Please cite Q-Chem as follows:
 Y. Shao et al., Mol. Phys. 113, 184-215 (2015)
 DOI: 10.1080/00268976.2014.952696

 Q-Chem 5.4.1 for Intel X86 EM64T Linux

 Parts of Q-Chem use Armadillo 9.900.5 (Nocturnal Misbehaviour).
 http://arma.sourceforge.net/

 Q-Chem begins on Mon Sep  5 11:54:18 2022  

orc34
 Host: 0

     Scratch files written to /scratch/yongbin/qchem26467//
 Processing $rem in /home/users/yongbin/software/yongbin_quantum/config/preferences:
 Processing $rem in /home/users/yongbin/.qchemrc:
 Core orbitals will be frozen

 Checking the input file for inconsistencies... 	...done.

--------------------------------------------------------------
User input:
--------------------------------------------------------------
$comment
Water molecule
$end

$molecule
0 1
O
H O 1.5
H O 1.5 H 104.5
$end

$rem
!   n_frozen_core = 0
   print_qis = true
   BASIS                = sto-3g
!   SYMMETRY             = true
!   CC_SYMMETRY          = false
   METHOD               = eom-ccsd
   EE_SINGLETS          = [1,1,1,1] ! Compute two EOM-EE singlet excited states
   EE_TRIPLETS          = [1,1,1,1] ! Compute two EOM-EE triplet excited states
   CC_REF_PROP          = true ! Compute ground state properties
   CC_EOM_PROP          = true ! Compute excited state properties
!   CC_OSFNO             = true
   GUI                  = 2
$end
--------------------------------------------------------------
 ----------------------------------------------------------------
             Standard Nuclear Orientation (Angstroms)
    I     Atom           X                Y                Z
 ----------------------------------------------------------------
    1      O      -0.0000000000     0.0000000000     0.1836651840
    2      H      -1.1860343606    -0.0000000000    -0.7346607360
    3      H       1.1860343606    -0.0000000000    -0.7346607360
 ----------------------------------------------------------------
 Molecular Point Group                 C2v   NOp =  4
 Largest Abelian Subgroup              C2v   NOp =  4
 Nuclear Repulsion Energy =           5.86764371 hartrees
 There are        5 alpha and        5 beta electrons
 Requested basis set is STO-3G
 There are 4 shells and 7 basis functions
 Total memory of 2000 MB is distributed as follows: 
   MEM_STATIC is set to 192 MB
   QALLOC/CCMAN JOB total memory use is  1808 MB
 Warning: actual memory use might exceed 2000 MB

 Total QAlloc Memory Limit   2000 MB
 Mega-Array Size       188 MB
 MEM_STATIC part       192 MB

                       Distance Matrix (Angstroms)
             O (  1)   H (  2)
   H (  2)  1.500000
   H (  3)  1.500000  2.372069

 A cutoff of  1.0D-14 yielded     10 shell pairs
 There are        34 function pairs
 Smallest overlap matrix eigenvalue = 6.38E-01

 Scale SEOQF with 1.000000e+00/1.000000e+00/1.000000e+00

 Standard Electronic Orientation quadrupole field applied
 Nucleus-field energy     =    -0.0000000004 hartrees
 Guess from superposition of atomic densities
 Warning:  Energy on first SCF cycle will be non-variational
 SAD guess density has 10.000000 electrons

 -----------------------------------------------------------------------
  General SCF calculation program by
  Eric Jon Sundstrom, Paul Horn, Yuezhi Mao, Dmitri Zuev, Alec White,
  David Stuck, Shaama M.S., Shane Yost, Joonho Lee, David Small,
  Daniel Levine, Susi Lehtola, Hugh Burton, Evgeny Epifanovsky,
  Bang C. Huynh
 -----------------------------------------------------------------------
 Hartree-Fock
 using 16 threads for integral computing
 -------------------------------------------------------
 OpenMP Integral computing Module                
 Release: version 1.0, May 2013, Q-Chem Inc. Pittsburgh 
 -------------------------------------------------------
 A restricted SCF calculation will be
 performed using DIIS
 SCF converges when DIIS error is below 1.0e-08
 ---------------------------------------
  Cycle       Energy         DIIS error
 ---------------------------------------
    1     -73.9211673563      1.31e-01  
    2     -74.5866067225      9.92e-02  
    3     -74.6983368416      2.32e-02  
    4     -74.7041333950      1.02e-03  
    5     -74.7041516137      3.85e-04  
    6     -74.7041563418      1.28e-04  
    7     -74.7041568728      5.04e-06  
    8     -74.7041568732      4.91e-08  
    9     -74.7041568732      6.44e-11  Convergence criterion met
 ---------------------------------------
 SCF time:   CPU 1.15s  wall 1.00s 
 SCF   energy in the final basis set =      -74.7041568732
 Total energy in the final basis set =      -74.7041568732


 ------------------------------------------------------------------------------

   CCMAN2: suite of methods based on coupled cluster
           and equation of motion theories.

   Components:
   * libvmm-1.3-trunk
     by Evgeny Epifanovsky, Ilya Kaliman.
   * libtensor-2.5-trunk
     by Evgeny Epifanovsky, Michael Wormit, Dmitry Zuev, Sam Manzer, 
        Ilya Kaliman.
   * libcc-2.5-trunk
     by Evgeny Epifanovsky, Arik Landau, Tomasz Kus, Kirill Khistyaev, 
        Dmitry Zuev, Prashant Manohar, Xintian Feng, Anna Krylov, 
        Matthew Goldey, Alec White, Thomas Jagau, Kaushik Nanda, 
        Anastasia Gunina, Alexander Kunitsa, Joonho Lee.

   CCMAN original authors:
   Anna I. Krylov, C. David Sherrill, Steven R. Gwaltney,
   Edward F. C. Byrd (2000)
   Sergey V. Levchenko, Lyudmila V. Slipchenko, Tao Wang,
   Ana-Maria C. Cristian (2003)
   Piotr A. Pieniazek, C. Melania Oana, Evgeny Epifanovsky (2007)
   Prashant Manohar (2009)

 ------------------------------------------------------------------------------


 Allocating and initializing 1808MB of RAM...
 Calculation will run on 16 cores.


 Alpha MOs, Restricted
 -- Occupied --                  
-20.309  -1.143  -0.406  -0.400  -0.371
  1 A1    2 A1    1 B1    1 B2    3 A1                                         
 -- Virtual --                   
  0.243   0.307
  4 A1    2 B1                                                                 

 Beta MOs, Restricted
 -- Occupied --                  
-20.309  -1.143  -0.406  -0.400  -0.371
  1 A1    2 A1    1 B1    1 B2    3 A1                                         
 -- Virtual --                   
  0.243   0.307
  4 A1    2 B1                                                                 

 Occupation and symmetry of molecular orbitals

 Point group: C2v (4 irreducible representations).

                           A1   A2   B1   B2    All 
 ----------------------------------------------------
 All molecular orbitals:
  - Alpha                  4    0    2    1     7   
  - Beta                   4    0    2    1     7   
 ----------------------------------------------------
 Alpha orbitals:
  - Frozen occupied        1    0    0    0     1   
  - Active occupied        2    0    1    1     4   
  - Active virtual         1    0    1    0     2   
  - Frozen virtual         0    0    0    0     0   
 ----------------------------------------------------
 Beta orbitals:
  - Frozen occupied        1    0    0    0     1   
  - Active occupied        2    0    1    1     4   
  - Active virtual         1    0    1    0     2   
  - Frozen virtual         0    0    0    0     0   
 ----------------------------------------------------

 Import integrals:   CPU 0.00 s  wall 0.00 s

 Import integrals:   CPU 0.39 s  wall 0.07 s

 Run QIS:   CPU 0.01 s  wall 0.01 s

 MP2 amplitudes:   CPU 0.03 s  wall 0.02 s

Running a double precision version
           CCSD T amplitudes will be solved using DIIS.

           Start     Size      MaxIter   EConv     TConv     
           3         7         100       1.00e-06  1.00e-04  
 ------------------------------------------------------------------------------
           Energy (a.u.)   Ediff      Tdiff       Comment
 ------------------------------------------------------------------------------
           -74.81489382                           
     1     -74.84344848   2.86e-02   3.61e-01     
     2     -74.85683173   1.34e-02   9.58e-02     
     3     -74.86386834   7.04e-03   4.97e-02     
     4     -74.87172908   7.86e-03   4.64e-02     Switched to DIIS steps.
     5     -74.87197274   2.44e-04   9.19e-03     
     6     -74.87238655   4.14e-04   3.15e-03     
     7     -74.87247803   9.15e-05   9.09e-04     
     8     -74.87242201   5.60e-05   5.15e-04     
     9     -74.87244179   1.98e-05   1.45e-04     
    10     -74.87244067   1.12e-06   4.13e-05     
    11     -74.87244066   6.05e-09   1.49e-05     
 ------------------------------------------------------------------------------
           -74.87244066                           CCSD T converged.

End of double precision
 SCF energy                 = -74.70415687
 MP2 energy                 = -74.81489382
 CCSD correlation energy    =  -0.16828379
 CCSD total energy          = -74.87244066

 CCSD  T1^2 = 0.0046  T2^2 = 0.2186  Leading amplitudes:

 Amplitude    Orbitals with energies
 -0.0435821573       3 (A1) A                  ->    4 (A1) A                   
                    -0.3706                          0.2429                     
 -0.0435821573       3 (A1) B                  ->    4 (A1) B                   
                    -0.3706                          0.2429                     
 -0.0187559759       2 (A1) A                  ->    4 (A1) A                   
                    -1.1429                          0.2429                     
 -0.0187559759       2 (A1) B                  ->    4 (A1) B                   
                    -1.1429                          0.2429                     

 Amplitude    Orbitals with energies
 -0.2276292601       3 (A1) A      3 (A1) B    ->    4 (A1) A      4 (A1) B     
                    -0.3706       -0.3706            0.2429        0.2429       
  0.2276292601       3 (A1) A      3 (A1) B    ->    4 (A1) B      4 (A1) A     
                    -0.3706       -0.3706            0.2429        0.2429       
  0.2276292601       3 (A1) B      3 (A1) A    ->    4 (A1) A      4 (A1) B     
                    -0.3706       -0.3706            0.2429        0.2429       
 -0.2276292601       3 (A1) B      3 (A1) A    ->    4 (A1) B      4 (A1) A     
                    -0.3706       -0.3706            0.2429        0.2429       
 -0.2004356909       1 (B1) A      1 (B1) B    ->    2 (B1) A      2 (B1) B     
                    -0.4063       -0.4063            0.3072        0.3072       
  0.2004356909       1 (B1) A      1 (B1) B    ->    2 (B1) B      2 (B1) A     
                    -0.4063       -0.4063            0.3072        0.3072       
  0.2004356909       1 (B1) B      1 (B1) A    ->    2 (B1) A      2 (B1) B     
                    -0.4063       -0.4063            0.3072        0.3072       
 -0.2004356909       1 (B1) B      1 (B1) A    ->    2 (B1) B      2 (B1) A     
                    -0.4063       -0.4063            0.3072        0.3072       
 -0.1572106653       3 (A1) A      1 (B1) B    ->    4 (A1) A      2 (B1) B     
                    -0.3706       -0.4063            0.2429        0.3072       
  0.1572106653       3 (A1) A      1 (B1) B    ->    2 (B1) B      4 (A1) A     
                    -0.3706       -0.4063            0.3072        0.2429       
 -0.1572106653       1 (B1) A      3 (A1) B    ->    2 (B1) A      4 (A1) B     
                    -0.4063       -0.3706            0.3072        0.2429       
  0.1572106653       1 (B1) A      3 (A1) B    ->    4 (A1) B      2 (B1) A     
                    -0.4063       -0.3706            0.2429        0.3072       
  0.1572106653       3 (A1) B      1 (B1) A    ->    2 (B1) A      4 (A1) B     
                    -0.3706       -0.4063            0.3072        0.2429       
 -0.1572106653       3 (A1) B      1 (B1) A    ->    4 (A1) B      2 (B1) A     
                    -0.3706       -0.4063            0.2429        0.3072       
  0.1572106653       1 (B1) B      3 (A1) A    ->    4 (A1) A      2 (B1) B     
                    -0.4063       -0.3706            0.2429        0.3072       
 -0.1572106653       1 (B1) B      3 (A1) A    ->    2 (B1) B      4 (A1) A     
                    -0.4063       -0.3706            0.3072        0.2429       
 -0.1533593517       3 (A1) A      1 (B1) B    ->    2 (B1) A      4 (A1) B     
                    -0.3706       -0.4063            0.3072        0.2429       
  0.1533593517       3 (A1) A      1 (B1) B    ->    4 (A1) B      2 (B1) A     
                    -0.3706       -0.4063            0.2429        0.3072       
 -0.1533593517       1 (B1) A      3 (A1) B    ->    4 (A1) A      2 (B1) B     
                    -0.4063       -0.3706            0.2429        0.3072       
  0.1533593517       1 (B1) A      3 (A1) B    ->    2 (B1) B      4 (A1) A     
                    -0.4063       -0.3706            0.3072        0.2429       
  0.1533593517       3 (A1) B      1 (B1) A    ->    4 (A1) A      2 (B1) B     
                    -0.3706       -0.4063            0.2429        0.3072       
 -0.1533593517       3 (A1) B      1 (B1) A    ->    2 (B1) B      4 (A1) A     
                    -0.3706       -0.4063            0.3072        0.2429       
  0.1533593517       1 (B1) B      3 (A1) A    ->    2 (B1) A      4 (A1) B     
                    -0.4063       -0.3706            0.3072        0.2429       
 -0.1533593517       1 (B1) B      3 (A1) A    ->    4 (A1) B      2 (B1) A     
                    -0.4063       -0.3706            0.2429        0.3072       
 -0.1089113839       1 (B1) A      1 (B1) B    ->    4 (A1) A      4 (A1) B     
                    -0.4063       -0.4063            0.2429        0.2429       
  0.1089113839       1 (B1) A      1 (B1) B    ->    4 (A1) B      4 (A1) A     
                    -0.4063       -0.4063            0.2429        0.2429       
  0.1089113839       1 (B1) B      1 (B1) A    ->    4 (A1) A      4 (A1) B     
                    -0.4063       -0.4063            0.2429        0.2429       
 -0.1089113839       1 (B1) B      1 (B1) A    ->    4 (A1) B      4 (A1) A     
                    -0.4063       -0.4063            0.2429        0.2429       
 -0.1086486074       3 (A1) A      3 (A1) B    ->    2 (B1) A      2 (B1) B     
                    -0.3706       -0.3706            0.3072        0.3072       
  0.1086486074       3 (A1) A      3 (A1) B    ->    2 (B1) B      2 (B1) A     
                    -0.3706       -0.3706            0.3072        0.3072       
  0.1086486074       3 (A1) B      3 (A1) A    ->    2 (B1) A      2 (B1) B     
                    -0.3706       -0.3706            0.3072        0.3072       
 -0.1086486074       3 (A1) B      3 (A1) A    ->    2 (B1) B      2 (B1) A     
                    -0.3706       -0.3706            0.3072        0.3072       

 Computing CCSD intermediates for later calculations in double precision
 Finished.

Running a double precision version
           CCSD Lambda amplitudes will be solved using DIIS.
           Start     Size      MaxIter   EConv     LConv     
           3         7         100       1.00e-06  1.00e-04  
 ------------------------------------------------------------------------------
            Enorm      Ldiff       Comment
 ------------------------------------------------------------------------------
     1     8.75e-02   5.83e-02     
     2     1.75e-02   1.10e-02     
     3     8.86e-03   5.12e-03     
     4     2.03e-03   4.18e-03     Switched to DIIS steps.
     5     1.05e-03   3.22e-06     
     6     3.54e-04   5.56e-04     
     7     1.05e-04   2.74e-04     
     8     3.83e-05   5.07e-05     
     9     1.04e-05   1.58e-05     
    10     2.48e-06   1.32e-06     
    11     6.89e-07   2.91e-07     
 ------------------------------------------------------------------------------
                                   CCSD Lambda converged.

 Computing density matrices in double precision...
 Computing density matrices... Done.
 Reference state properties
 Dipole moment (a.u.): 0.232021 (X 0.000000, Y 0.000000, Z -0.232021)
 R-squared (a.u.): 27.327694 (XX 13.683977, YY 4.753991, ZZ 8.889726)
 Gauge origin (a.u.): (0.000000, 0.000000, 0.000000)
 Angular momentum (a.u.) against gauge origin: 
 (X 0.000000i, Y 0.000000i, Z 0.000000i)
 Traces of the OPDMs: Tr(AA) 5.000000, Tr(BB) 5.000000
 Density matrix was written to a file for further analysis.

 CCSD calculation:   CPU 5.97 s  wall 1.48 s

        Solving for EOMEE-CCSD A1 singlet states.

Running a double precision version
        EOMEE-CCSD/MP2 right amplitudes will be solved using Davidson.
        Amplitudes will be solved using standard  algorithm.
     Hard-coded thresholds: 
     LinDepThresh=1.00e-15  NormThresh=1.00e-06  ReorthogonThresh=1.00e-02

      Roots     MaxVec    MaxIter   Precond   Conv      Shift    
      1         120       60        1         1.00e-05  0.00e+00  
 ------------------------------------------------------------------------------
      Iter ConvRoots NVecs ResNorm Current eigenvalues (eV)
 ------------------------------------------------------------------------------
      0    0      1     7.15e-02   14.0382   
      1    0      2     5.95e-02   11.3592   
      2    0      3     9.05e-03   9.4074   
      3    0      4     2.23e-03   9.0092   
      4    0      5     5.32e-04   8.9388   
      5    0      6     7.55e-04   8.8918   
      6    0      7     1.16e-03   8.8350   
      7    0      8     5.26e-04   8.8065   
      8    0      9     1.13e-04   8.7878   
      9    0      10    1.13e-05   8.7862   
      10   1      11    5.53e-07   8.7846*  

     Davidson procedure converged

 EOMEE transition 1/A1
 Total energy = -74.54961070 a.u.  Excitation energy = 8.78464994 eV.
 R0^2 = 0.0216  R1^2 = 0.6208  R2^2 = 0.3792  Res^2 = 5.53e-07
 Conv-d = yes

 Amplitude    Transitions between orbitals
 -0.4647468188       3 (A1) A                  ->    4 (A1) A                   
 -0.4647468188       3 (A1) B                  ->    4 (A1) B                   
  0.3025377896       1 (B1) A                  ->    2 (B1) A                   
  0.3025377896       1 (B1) B                  ->    2 (B1) B                   
 -0.0537202357       2 (A1) A                  ->    4 (A1) A                   
 -0.0537202357       2 (A1) B                  ->    4 (A1) B                   
  0.3865956113       1 (B1) A      1 (B1) B    ->    4 (A1) A      4 (A1) B     
 -0.3865956113       1 (B1) A      1 (B1) B    ->    4 (A1) B      4 (A1) A     
 -0.3865956113       1 (B1) B      1 (B1) A    ->    4 (A1) A      4 (A1) B     
  0.3865956113       1 (B1) B      1 (B1) A    ->    4 (A1) B      4 (A1) A     
 -0.3392872973       3 (A1) A      3 (A1) B    ->    4 (A1) A      4 (A1) B     
  0.3392872973       3 (A1) A      3 (A1) B    ->    4 (A1) B      4 (A1) A     
  0.3392872973       3 (A1) B      3 (A1) A    ->    4 (A1) A      4 (A1) B     
 -0.3392872973       3 (A1) B      3 (A1) A    ->    4 (A1) B      4 (A1) A     
 -0.1877830304       1 (B1) A      1 (B1) B    ->    2 (B1) A      2 (B1) B     
  0.1877830304       1 (B1) A      1 (B1) B    ->    2 (B1) B      2 (B1) A     
  0.1877830304       1 (B1) B      1 (B1) A    ->    2 (B1) A      2 (B1) B     
 -0.1877830304       1 (B1) B      1 (B1) A    ->    2 (B1) B      2 (B1) A     
  0.1351161081       3 (A1) A      1 (B1) A    ->    4 (A1) A      2 (B1) A     
 -0.1351161081       3 (A1) A      1 (B1) A    ->    2 (B1) A      4 (A1) A     
 -0.1351161081       1 (B1) A      3 (A1) A    ->    4 (A1) A      2 (B1) A     
  0.1351161081       1 (B1) A      3 (A1) A    ->    2 (B1) A      4 (A1) A     
  0.1351161081       3 (A1) B      1 (B1) B    ->    4 (A1) B      2 (B1) B     
 -0.1351161081       3 (A1) B      1 (B1) B    ->    2 (B1) B      4 (A1) B     
 -0.1351161081       1 (B1) B      3 (A1) B    ->    4 (A1) B      2 (B1) B     
  0.1351161081       1 (B1) B      3 (A1) B    ->    2 (B1) B      4 (A1) B     
 -0.1136608516       3 (A1) A      1 (B1) B    ->    2 (B1) A      4 (A1) B     
  0.1136608516       3 (A1) A      1 (B1) B    ->    4 (A1) B      2 (B1) A     
 -0.1136608516       1 (B1) A      3 (A1) B    ->    4 (A1) A      2 (B1) B     
  0.1136608516       1 (B1) A      3 (A1) B    ->    2 (B1) B      4 (A1) A     
  0.1136608516       3 (A1) B      1 (B1) A    ->    4 (A1) A      2 (B1) B     
 -0.1136608516       3 (A1) B      1 (B1) A    ->    2 (B1) B      4 (A1) A     
  0.1136608516       1 (B1) B      3 (A1) A    ->    2 (B1) A      4 (A1) B     
 -0.1136608516       1 (B1) B      3 (A1) A    ->    4 (A1) B      2 (B1) A     
 -0.0751696259       3 (A1) A      3 (A1) B    ->    2 (B1) A      2 (B1) B     
  0.0751696259       3 (A1) A      3 (A1) B    ->    2 (B1) B      2 (B1) A     
  0.0751696259       3 (A1) B      3 (A1) A    ->    2 (B1) A      2 (B1) B     
 -0.0751696259       3 (A1) B      3 (A1) A    ->    2 (B1) B      2 (B1) A     
  0.0502706827       1 (B2) A      1 (B2) B    ->    2 (B1) A      2 (B1) B     
 -0.0502706827       1 (B2) A      1 (B2) B    ->    2 (B1) B      2 (B1) A     
 -0.0502706827       1 (B2) B      1 (B2) A    ->    2 (B1) A      2 (B1) B     
  0.0502706827       1 (B2) B      1 (B2) A    ->    2 (B1) B      2 (B1) A     
  0.0401309877       2 (A1) A      2 (A1) B    ->    2 (B1) A      2 (B1) B     
 -0.0401309877       2 (A1) A      2 (A1) B    ->    2 (B1) B      2 (B1) A     
 -0.0401309877       2 (A1) B      2 (A1) A    ->    2 (B1) A      2 (B1) B     
  0.0401309877       2 (A1) B      2 (A1) A    ->    2 (B1) B      2 (B1) A     
 -0.0368341815       1 (B2) A      1 (B2) B    ->    4 (A1) A      4 (A1) B     
  0.0368341815       1 (B2) A      1 (B2) B    ->    4 (A1) B      4 (A1) A     
  0.0368341815       1 (B2) B      1 (B2) A    ->    4 (A1) A      4 (A1) B     
 -0.0368341815       1 (B2) B      1 (B2) A    ->    4 (A1) B      4 (A1) A     
 -0.0331528366       2 (A1) A      1 (B1) B    ->    4 (A1) A      2 (B1) B     
  0.0331528366       2 (A1) A      1 (B1) B    ->    2 (B1) B      4 (A1) A     
 -0.0331528366       1 (B1) A      2 (A1) B    ->    2 (B1) A      4 (A1) B     
  0.0331528366       1 (B1) A      2 (A1) B    ->    4 (A1) B      2 (B1) A     
  0.0331528366       2 (A1) B      1 (B1) A    ->    2 (B1) A      4 (A1) B     
 -0.0331528366       2 (A1) B      1 (B1) A    ->    4 (A1) B      2 (B1) A     
  0.0331528366       1 (B1) B      2 (A1) A    ->    4 (A1) A      2 (B1) B     
 -0.0331528366       1 (B1) B      2 (A1) A    ->    2 (B1) B      4 (A1) A     
 -0.0330461813       2 (A1) A      2 (A1) B    ->    4 (A1) A      4 (A1) B     
  0.0330461813       2 (A1) A      2 (A1) B    ->    4 (A1) B      4 (A1) A     
  0.0330461813       2 (A1) B      2 (A1) A    ->    4 (A1) A      4 (A1) B     
 -0.0330461813       2 (A1) B      2 (A1) A    ->    4 (A1) B      4 (A1) A     
 -0.0245580652       2 (A1) A      1 (B1) A    ->    4 (A1) A      2 (B1) A     
  0.0245580652       2 (A1) A      1 (B1) A    ->    2 (B1) A      4 (A1) A     
  0.0245580652       1 (B1) A      2 (A1) A    ->    4 (A1) A      2 (B1) A     
 -0.0245580652       1 (B1) A      2 (A1) A    ->    2 (B1) A      4 (A1) A     
 -0.0245580652       2 (A1) B      1 (B1) B    ->    4 (A1) B      2 (B1) B     
  0.0245580652       2 (A1) B      1 (B1) B    ->    2 (B1) B      4 (A1) B     
  0.0245580652       1 (B1) B      2 (A1) B    ->    4 (A1) B      2 (B1) B     
 -0.0245580652       1 (B1) B      2 (A1) B    ->    2 (B1) B      4 (A1) B     
 -0.0200339668       2 (A1) A      3 (A1) B    ->    4 (A1) A      4 (A1) B     
 -0.0200339668       3 (A1) A      2 (A1) B    ->    4 (A1) A      4 (A1) B     
  0.0200339668       2 (A1) A      3 (A1) B    ->    4 (A1) B      4 (A1) A     
  0.0200339668       3 (A1) A      2 (A1) B    ->    4 (A1) B      4 (A1) A     
  0.0200339668       3 (A1) B      2 (A1) A    ->    4 (A1) A      4 (A1) B     
  0.0200339668       2 (A1) B      3 (A1) A    ->    4 (A1) A      4 (A1) B     
 -0.0200339668       2 (A1) B      3 (A1) A    ->    4 (A1) B      4 (A1) A     
 -0.0200339668       3 (A1) B      2 (A1) A    ->    4 (A1) B      4 (A1) A     
  0.0131063470       3 (A1) A      1 (B1) B    ->    4 (A1) A      2 (B1) B     
 -0.0131063470       3 (A1) A      1 (B1) B    ->    2 (B1) B      4 (A1) A     
  0.0131063470       1 (B1) A      3 (A1) B    ->    2 (B1) A      4 (A1) B     
 -0.0131063470       1 (B1) A      3 (A1) B    ->    4 (A1) B      2 (B1) A     
 -0.0131063470       3 (A1) B      1 (B1) A    ->    2 (B1) A      4 (A1) B     
  0.0131063470       3 (A1) B      1 (B1) A    ->    4 (A1) B      2 (B1) A     
 -0.0131063470       1 (B1) B      3 (A1) A    ->    4 (A1) A      2 (B1) B     
  0.0131063470       1 (B1) B      3 (A1) A    ->    2 (B1) B      4 (A1) A     
 -0.0090056091       2 (A1) A      1 (B1) B    ->    2 (B1) A      4 (A1) B     
  0.0090056091       2 (A1) A      1 (B1) B    ->    4 (A1) B      2 (B1) A     
 -0.0090056091       1 (B1) A      2 (A1) B    ->    4 (A1) A      2 (B1) B     
  0.0090056091       1 (B1) A      2 (A1) B    ->    2 (B1) B      4 (A1) A     
  0.0090056091       2 (A1) B      1 (B1) A    ->    4 (A1) A      2 (B1) B     
 -0.0090056091       2 (A1) B      1 (B1) A    ->    2 (B1) B      4 (A1) A     
  0.0090056091       1 (B1) B      2 (A1) A    ->    2 (B1) A      4 (A1) B     
 -0.0090056091       1 (B1) B      2 (A1) A    ->    4 (A1) B      2 (B1) A     
  0.0053017031       2 (A1) A      3 (A1) B    ->    2 (B1) A      2 (B1) B     
  0.0053017031       3 (A1) A      2 (A1) B    ->    2 (B1) A      2 (B1) B     
 -0.0053017031       2 (A1) A      3 (A1) B    ->    2 (B1) B      2 (B1) A     
 -0.0053017031       3 (A1) A      2 (A1) B    ->    2 (B1) B      2 (B1) A     
 -0.0053017031       3 (A1) B      2 (A1) A    ->    2 (B1) A      2 (B1) B     
 -0.0053017031       2 (A1) B      3 (A1) A    ->    2 (B1) A      2 (B1) B     
  0.0053017031       2 (A1) B      3 (A1) A    ->    2 (B1) B      2 (B1) A     
  0.0053017031       3 (A1) B      2 (A1) A    ->    2 (B1) B      2 (B1) A     

              Summary of significant orbitals:

               Number  Type             Irrep      Energy
               2       Occ  Alpha       2 (A1)     -1.1429
               5       Occ  Alpha       3 (A1)     -0.3706
               3       Occ  Alpha       1 (B1)     -0.4063
               4       Occ  Alpha       1 (B2)     -0.3998
               2       Occ  Beta        2 (A1)     -1.1429
               5       Occ  Beta        3 (A1)     -0.3706
               3       Occ  Beta        1 (B1)     -0.4063
               4       Occ  Beta        1 (B2)     -0.3998
               6       Vir  Alpha       4 (A1)      0.2429
               7       Vir  Alpha       2 (B1)      0.3072
               6       Vir  Beta        4 (A1)      0.2429
               7       Vir  Beta        2 (B1)      0.3072


 EEs and amplitudes of EOMEE has be exported to fchk file
Running a double precision version
      EOM-CCSD/MP2 left amplitudes will be solved using Davidson.
        Amplitudes will be solved using MOM  algorithm.
     Hard-coded thresholds: 
     LinDepThresh=1.00e-15  NormThresh=1.00e-06  ReorthogonThresh=1.00e-02

      Roots     MaxVec    MaxIter   Precond   Conv      Shift    
      1         120       60        1         1.00e-05  0.00e+00  
 ------------------------------------------------------------------------------
      Iter ConvRoots NVecs ResNorm Current eigenvalues (eV)
 ------------------------------------------------------------------------------
      0    0      1     3.74e-03   8.7846   
      1    0      2     9.19e-04   8.7846   
      2    0      3     1.11e-04   8.7841   
      3    0      4     3.60e-05   8.7839   
      4    0      5     2.45e-05   8.7839   
      5    0      6     7.03e-05   8.7839   
      6    1      7     6.34e-06   8.7839*  

     Davidson procedure converged

 Excited state properties for  EOMEE-CCSD transition 1/A1
 Dipole moment (a.u.): 0.140819 (X 0.000000, Y 0.000000, Z -0.140819)
 R-squared (a.u.): 27.130009 (XX 13.463798, YY 4.681517, ZZ 8.984694)
 Gauge origin (a.u.): (0.000000, 0.000000, 0.000000)
 Angular momentum (a.u.) against gauge origin: 
 (X 0.000000i, Y 0.000000i, Z 0.000000i)
 Traces of the OPDMs: Tr(AA) 5.000000, Tr(BB) 5.000000

        Solving for EOMEE-CCSD A2 singlet states.

Running a double precision version
        EOMEE-CCSD/MP2 right amplitudes will be solved using Davidson.
        Amplitudes will be solved using standard  algorithm.
     Hard-coded thresholds: 
     LinDepThresh=1.00e-15  NormThresh=1.00e-06  ReorthogonThresh=1.00e-02

      Roots     MaxVec    MaxIter   Precond   Conv      Shift    
      1         120       60        1         1.00e-05  0.00e+00  
 ------------------------------------------------------------------------------
      Iter ConvRoots NVecs ResNorm Current eigenvalues (eV)
 ------------------------------------------------------------------------------
      0    0      1     6.10e-02   7.5620   
      1    0      2     5.38e-03   4.1804   
      2    0      3     1.82e-04   4.0698   
      3    1      4     7.09e-06   4.0682*  

     Davidson procedure converged

 EOMEE transition 1/A2
 Total energy = -74.72293590 a.u.  Excitation energy = 4.06823150 eV.
 R0^2 = 0.0000  R1^2 = 0.7760  R2^2 = 0.2240  Res^2 = 7.09e-06
 Conv-d = yes

 Amplitude    Transitions between orbitals
  0.6228845182       1 (B2) A                  ->    2 (B1) A                   
  0.6228845182       1 (B2) B                  ->    2 (B1) B                   
  0.1932277477       1 (B1) A      1 (B2) B    ->    2 (B1) A      2 (B1) B     
 -0.1932277477       1 (B1) A      1 (B2) B    ->    2 (B1) B      2 (B1) A     
  0.1932277477       1 (B2) A      1 (B1) B    ->    2 (B1) A      2 (B1) B     
 -0.1932277477       1 (B2) A      1 (B1) B    ->    2 (B1) B      2 (B1) A     
 -0.1932277477       1 (B1) B      1 (B2) A    ->    2 (B1) A      2 (B1) B     
  0.1932277477       1 (B1) B      1 (B2) A    ->    2 (B1) B      2 (B1) A     
 -0.1932277477       1 (B2) B      1 (B1) A    ->    2 (B1) A      2 (B1) B     
  0.1932277477       1 (B2) B      1 (B1) A    ->    2 (B1) B      2 (B1) A     
  0.1794084020       3 (A1) A      1 (B2) B    ->    2 (B1) A      4 (A1) B     
 -0.1794084020       3 (A1) A      1 (B2) B    ->    4 (A1) B      2 (B1) A     
  0.1794084020       1 (B2) A      3 (A1) B    ->    4 (A1) A      2 (B1) B     
 -0.1794084020       1 (B2) A      3 (A1) B    ->    2 (B1) B      4 (A1) A     
 -0.1794084020       3 (A1) B      1 (B2) A    ->    4 (A1) A      2 (B1) B     
  0.1794084020       3 (A1) B      1 (B2) A    ->    2 (B1) B      4 (A1) A     
 -0.1794084020       1 (B2) B      3 (A1) A    ->    2 (B1) A      4 (A1) B     
  0.1794084020       1 (B2) B      3 (A1) A    ->    4 (A1) B      2 (B1) A     
  0.1637361672       3 (A1) A      1 (B2) B    ->    4 (A1) A      2 (B1) B     
 -0.1637361672       3 (A1) A      1 (B2) B    ->    2 (B1) B      4 (A1) A     
  0.1637361672       1 (B2) A      3 (A1) B    ->    2 (B1) A      4 (A1) B     
 -0.1637361672       1 (B2) A      3 (A1) B    ->    4 (A1) B      2 (B1) A     
 -0.1637361672       3 (A1) B      1 (B2) A    ->    2 (B1) A      4 (A1) B     
  0.1637361672       3 (A1) B      1 (B2) A    ->    4 (A1) B      2 (B1) A     
 -0.1637361672       1 (B2) B      3 (A1) A    ->    4 (A1) A      2 (B1) B     
  0.1637361672       1 (B2) B      3 (A1) A    ->    2 (B1) B      4 (A1) A     
  0.1167403193       1 (B1) A      1 (B2) B    ->    4 (A1) A      4 (A1) B     
 -0.1167403193       1 (B1) A      1 (B2) B    ->    4 (A1) B      4 (A1) A     
  0.1167403193       1 (B2) A      1 (B1) B    ->    4 (A1) A      4 (A1) B     
 -0.1167403193       1 (B2) A      1 (B1) B    ->    4 (A1) B      4 (A1) A     
 -0.1167403193       1 (B1) B      1 (B2) A    ->    4 (A1) A      4 (A1) B     
  0.1167403193       1 (B1) B      1 (B2) A    ->    4 (A1) B      4 (A1) A     
 -0.1167403193       1 (B2) B      1 (B1) A    ->    4 (A1) A      4 (A1) B     
  0.1167403193       1 (B2) B      1 (B1) A    ->    4 (A1) B      4 (A1) A     
 -0.0317441394       2 (A1) A      1 (B2) B    ->    2 (B1) A      4 (A1) B     
  0.0317441394       2 (A1) A      1 (B2) B    ->    4 (A1) B      2 (B1) A     
 -0.0317441394       1 (B2) A      2 (A1) B    ->    4 (A1) A      2 (B1) B     
  0.0317441394       1 (B2) A      2 (A1) B    ->    2 (B1) B      4 (A1) A     
  0.0317441394       2 (A1) B      1 (B2) A    ->    4 (A1) A      2 (B1) B     
 -0.0317441394       2 (A1) B      1 (B2) A    ->    2 (B1) B      4 (A1) A     
  0.0317441394       1 (B2) B      2 (A1) A    ->    2 (B1) A      4 (A1) B     
 -0.0317441394       1 (B2) B      2 (A1) A    ->    4 (A1) B      2 (B1) A     
 -0.0272079476       2 (A1) A      1 (B2) B    ->    4 (A1) A      2 (B1) B     
  0.0272079476       2 (A1) A      1 (B2) B    ->    2 (B1) B      4 (A1) A     
 -0.0272079476       1 (B2) A      2 (A1) B    ->    2 (B1) A      4 (A1) B     
  0.0272079476       1 (B2) A      2 (A1) B    ->    4 (A1) B      2 (B1) A     
  0.0272079476       2 (A1) B      1 (B2) A    ->    2 (B1) A      4 (A1) B     
 -0.0272079476       2 (A1) B      1 (B2) A    ->    4 (A1) B      2 (B1) A     
  0.0272079476       1 (B2) B      2 (A1) A    ->    4 (A1) A      2 (B1) B     
 -0.0272079476       1 (B2) B      2 (A1) A    ->    2 (B1) B      4 (A1) A     
 -0.0168157666       3 (A1) A      1 (B2) A    ->    4 (A1) A      2 (B1) A     
  0.0168157666       3 (A1) A      1 (B2) A    ->    2 (B1) A      4 (A1) A     
  0.0168157666       1 (B2) A      3 (A1) A    ->    4 (A1) A      2 (B1) A     
 -0.0168157666       1 (B2) A      3 (A1) A    ->    2 (B1) A      4 (A1) A     
 -0.0168157666       3 (A1) B      1 (B2) B    ->    4 (A1) B      2 (B1) B     
  0.0168157666       3 (A1) B      1 (B2) B    ->    2 (B1) B      4 (A1) B     
  0.0168157666       1 (B2) B      3 (A1) B    ->    4 (A1) B      2 (B1) B     
 -0.0168157666       1 (B2) B      3 (A1) B    ->    2 (B1) B      4 (A1) B     
  0.0046874758       2 (A1) A      1 (B2) A    ->    4 (A1) A      2 (B1) A     
 -0.0046874758       2 (A1) A      1 (B2) A    ->    2 (B1) A      4 (A1) A     
 -0.0046874758       1 (B2) A      2 (A1) A    ->    4 (A1) A      2 (B1) A     
  0.0046874758       1 (B2) A      2 (A1) A    ->    2 (B1) A      4 (A1) A     
  0.0046874758       2 (A1) B      1 (B2) B    ->    4 (A1) B      2 (B1) B     
 -0.0046874758       2 (A1) B      1 (B2) B    ->    2 (B1) B      4 (A1) B     
 -0.0046874758       1 (B2) B      2 (A1) B    ->    4 (A1) B      2 (B1) B     
  0.0046874758       1 (B2) B      2 (A1) B    ->    2 (B1) B      4 (A1) B     

              Summary of significant orbitals:

               Number  Type             Irrep      Energy
               2       Occ  Alpha       2 (A1)     -1.1429
               5       Occ  Alpha       3 (A1)     -0.3706
               3       Occ  Alpha       1 (B1)     -0.4063
               4       Occ  Alpha       1 (B2)     -0.3998
               2       Occ  Beta        2 (A1)     -1.1429
               5       Occ  Beta        3 (A1)     -0.3706
               3       Occ  Beta        1 (B1)     -0.4063
               4       Occ  Beta        1 (B2)     -0.3998
               6       Vir  Alpha       4 (A1)      0.2429
               7       Vir  Alpha       2 (B1)      0.3072
               6       Vir  Beta        4 (A1)      0.2429
               7       Vir  Beta        2 (B1)      0.3072


 EEs and amplitudes of EOMEE has be exported to fchk file
Running a double precision version
      EOM-CCSD/MP2 left amplitudes will be solved using Davidson.
        Amplitudes will be solved using MOM  algorithm.
     Hard-coded thresholds: 
     LinDepThresh=1.00e-15  NormThresh=1.00e-06  ReorthogonThresh=1.00e-02

      Roots     MaxVec    MaxIter   Precond   Conv      Shift    
      1         120       60        1         1.00e-05  0.00e+00  
 ------------------------------------------------------------------------------
      Iter ConvRoots NVecs ResNorm Current eigenvalues (eV)
 ------------------------------------------------------------------------------
      0    0      1     1.56e-03   4.0682   
      1    0      2     2.75e-04   4.0694   
      2    0      3     1.43e-05   4.0695   
      3    1      4     3.61e-06   4.0700*  

     Davidson procedure converged

 Excited state properties for  EOMEE-CCSD transition 1/A2
 Dipole moment (a.u.): 0.123547 (X 0.000000, Y 0.000000, Z -0.123547)
 R-squared (a.u.): 27.953608 (XX 14.556505, YY 4.144903, ZZ 9.252200)
 Gauge origin (a.u.): (0.000000, 0.000000, 0.000000)
 Angular momentum (a.u.) against gauge origin: 
 (X 0.000000i, Y 0.000000i, Z 0.000000i)
 Traces of the OPDMs: Tr(AA) 5.000000, Tr(BB) 5.000000

        Solving for EOMEE-CCSD B1 singlet states.

Running a double precision version
        EOMEE-CCSD/MP2 right amplitudes will be solved using Davidson.
        Amplitudes will be solved using standard  algorithm.
     Hard-coded thresholds: 
     LinDepThresh=1.00e-15  NormThresh=1.00e-06  ReorthogonThresh=1.00e-02

      Roots     MaxVec    MaxIter   Precond   Conv      Shift    
      1         120       60        1         1.00e-05  0.00e+00  
 ------------------------------------------------------------------------------
      Iter ConvRoots NVecs ResNorm Current eigenvalues (eV)
 ------------------------------------------------------------------------------
      0    0      1     3.50e-02   12.9552   
      1    0      2     3.07e-02   11.7616   
      2    0      3     6.47e-03   8.7402   
      3    0      4     9.21e-04   8.4871   
      4    0      5     1.19e-04   8.4594   
      5    0      6     1.31e-05   8.4577   
      6    1      7     1.60e-07   8.4577*  

     Davidson procedure converged

 EOMEE transition 1/B1
 Total energy = -74.56162598 a.u.  Excitation energy = 8.45769767 eV.
 R0^2 = 0.0000  R1^2 = 0.7647  R2^2 = 0.2353  Res^2 = 1.60e-07
 Conv-d = yes

 Amplitude    Transitions between orbitals
 -0.4553638434       3 (A1) A                  ->    2 (B1) A                   
 -0.4553638434       3 (A1) B                  ->    2 (B1) B                   
  0.4182227441       1 (B1) A                  ->    4 (A1) A                   
  0.4182227441       1 (B1) B                  ->    4 (A1) B                   
 -0.0089109943       2 (A1) A                  ->    2 (B1) A                   
 -0.0089109943       2 (A1) B                  ->    2 (B1) B                   
 -0.2120214843       3 (A1) A      3 (A1) B    ->    4 (A1) A      2 (B1) B     
 -0.2120214843       3 (A1) A      3 (A1) B    ->    2 (B1) A      4 (A1) B     
  0.2120214843       3 (A1) A      3 (A1) B    ->    4 (A1) B      2 (B1) A     
  0.2120214843       3 (A1) A      3 (A1) B    ->    2 (B1) B      4 (A1) A     
  0.2120214843       3 (A1) B      3 (A1) A    ->    4 (A1) A      2 (B1) B     
  0.2120214843       3 (A1) B      3 (A1) A    ->    2 (B1) A      4 (A1) B     
 -0.2120214843       3 (A1) B      3 (A1) A    ->    4 (A1) B      2 (B1) A     
 -0.2120214843       3 (A1) B      3 (A1) A    ->    2 (B1) B      4 (A1) A     
 -0.1797838128       3 (A1) A      1 (B1) B    ->    4 (A1) A      4 (A1) B     
  0.1797838128       3 (A1) A      1 (B1) B    ->    4 (A1) B      4 (A1) A     
 -0.1797838128       1 (B1) A      3 (A1) B    ->    4 (A1) A      4 (A1) B     
  0.1797838128       1 (B1) A      3 (A1) B    ->    4 (A1) B      4 (A1) A     
  0.1797838128       3 (A1) B      1 (B1) A    ->    4 (A1) A      4 (A1) B     
 -0.1797838128       3 (A1) B      1 (B1) A    ->    4 (A1) B      4 (A1) A     
  0.1797838128       1 (B1) B      3 (A1) A    ->    4 (A1) A      4 (A1) B     
 -0.1797838128       1 (B1) B      3 (A1) A    ->    4 (A1) B      4 (A1) A     
  0.1489488467       1 (B1) A      1 (B1) B    ->    4 (A1) A      2 (B1) B     
  0.1489488467       1 (B1) A      1 (B1) B    ->    2 (B1) A      4 (A1) B     
 -0.1489488467       1 (B1) A      1 (B1) B    ->    4 (A1) B      2 (B1) A     
 -0.1489488467       1 (B1) A      1 (B1) B    ->    2 (B1) B      4 (A1) A     
 -0.1489488467       1 (B1) B      1 (B1) A    ->    4 (A1) A      2 (B1) B     
 -0.1489488467       1 (B1) B      1 (B1) A    ->    2 (B1) A      4 (A1) B     
  0.1489488467       1 (B1) B      1 (B1) A    ->    4 (A1) B      2 (B1) A     
  0.1489488467       1 (B1) B      1 (B1) A    ->    2 (B1) B      4 (A1) A     
  0.1290212947       3 (A1) A      1 (B1) B    ->    2 (B1) A      2 (B1) B     
 -0.1290212947       3 (A1) A      1 (B1) B    ->    2 (B1) B      2 (B1) A     
  0.1290212947       1 (B1) A      3 (A1) B    ->    2 (B1) A      2 (B1) B     
 -0.1290212947       1 (B1) A      3 (A1) B    ->    2 (B1) B      2 (B1) A     
 -0.1290212947       3 (A1) B      1 (B1) A    ->    2 (B1) A      2 (B1) B     
  0.1290212947       3 (A1) B      1 (B1) A    ->    2 (B1) B      2 (B1) A     
 -0.1290212947       1 (B1) B      3 (A1) A    ->    2 (B1) A      2 (B1) B     
  0.1290212947       1 (B1) B      3 (A1) A    ->    2 (B1) B      2 (B1) A     
 -0.0321511309       2 (A1) A      1 (B1) B    ->    2 (B1) A      2 (B1) B     
  0.0321511309       2 (A1) A      1 (B1) B    ->    2 (B1) B      2 (B1) A     
 -0.0321511309       1 (B1) A      2 (A1) B    ->    2 (B1) A      2 (B1) B     
  0.0321511309       1 (B1) A      2 (A1) B    ->    2 (B1) B      2 (B1) A     
  0.0321511309       2 (A1) B      1 (B1) A    ->    2 (B1) A      2 (B1) B     
 -0.0321511309       2 (A1) B      1 (B1) A    ->    2 (B1) B      2 (B1) A     
  0.0321511309       1 (B1) B      2 (A1) A    ->    2 (B1) A      2 (B1) B     
 -0.0321511309       1 (B1) B      2 (A1) A    ->    2 (B1) B      2 (B1) A     
  0.0137385213       2 (A1) A      1 (B1) B    ->    4 (A1) A      4 (A1) B     
 -0.0137385213       2 (A1) A      1 (B1) B    ->    4 (A1) B      4 (A1) A     
  0.0137385213       1 (B1) A      2 (A1) B    ->    4 (A1) A      4 (A1) B     
 -0.0137385213       1 (B1) A      2 (A1) B    ->    4 (A1) B      4 (A1) A     
 -0.0137385213       2 (A1) B      1 (B1) A    ->    4 (A1) A      4 (A1) B     
  0.0137385213       2 (A1) B      1 (B1) A    ->    4 (A1) B      4 (A1) A     
 -0.0137385213       1 (B1) B      2 (A1) A    ->    4 (A1) A      4 (A1) B     
  0.0137385213       1 (B1) B      2 (A1) A    ->    4 (A1) B      4 (A1) A     
  0.0116066338       2 (A1) A      3 (A1) A    ->    4 (A1) A      2 (B1) A     
 -0.0116066338       3 (A1) A      2 (A1) A    ->    4 (A1) A      2 (B1) A     
 -0.0116066338       2 (A1) A      3 (A1) A    ->    2 (B1) A      4 (A1) A     
  0.0116066338       3 (A1) A      2 (A1) A    ->    2 (B1) A      4 (A1) A     
  0.0116066338       2 (A1) B      3 (A1) B    ->    4 (A1) B      2 (B1) B     
 -0.0116066338       3 (A1) B      2 (A1) B    ->    4 (A1) B      2 (B1) B     
 -0.0116066338       2 (A1) B      3 (A1) B    ->    2 (B1) B      4 (A1) B     
  0.0116066338       3 (A1) B      2 (A1) B    ->    2 (B1) B      4 (A1) B     
  0.0108510517       2 (A1) A      3 (A1) B    ->    4 (A1) A      2 (B1) B     
  0.0108510517       3 (A1) A      2 (A1) B    ->    2 (B1) A      4 (A1) B     
 -0.0108510517       3 (A1) A      2 (A1) B    ->    4 (A1) B      2 (B1) A     
 -0.0108510517       2 (A1) A      3 (A1) B    ->    2 (B1) B      4 (A1) A     
 -0.0108510517       3 (A1) B      2 (A1) A    ->    4 (A1) A      2 (B1) B     
 -0.0108510517       2 (A1) B      3 (A1) A    ->    2 (B1) A      4 (A1) B     
  0.0108510517       2 (A1) B      3 (A1) A    ->    4 (A1) B      2 (B1) A     
  0.0108510517       3 (A1) B      2 (A1) A    ->    2 (B1) B      4 (A1) A     
  0.0072011415       1 (B2) A      1 (B2) B    ->    4 (A1) A      2 (B1) B     
  0.0072011415       1 (B2) A      1 (B2) B    ->    2 (B1) A      4 (A1) B     
 -0.0072011415       1 (B2) A      1 (B2) B    ->    4 (A1) B      2 (B1) A     
 -0.0072011415       1 (B2) A      1 (B2) B    ->    2 (B1) B      4 (A1) A     
 -0.0072011415       1 (B2) B      1 (B2) A    ->    4 (A1) A      2 (B1) B     
 -0.0072011415       1 (B2) B      1 (B2) A    ->    2 (B1) A      4 (A1) B     
  0.0072011415       1 (B2) B      1 (B2) A    ->    4 (A1) B      2 (B1) A     
  0.0072011415       1 (B2) B      1 (B2) A    ->    2 (B1) B      4 (A1) A     
  0.0043766499       2 (A1) A      2 (A1) B    ->    4 (A1) A      2 (B1) B     
  0.0043766499       2 (A1) A      2 (A1) B    ->    2 (B1) A      4 (A1) B     
 -0.0043766499       2 (A1) A      2 (A1) B    ->    4 (A1) B      2 (B1) A     
 -0.0043766499       2 (A1) A      2 (A1) B    ->    2 (B1) B      4 (A1) A     
 -0.0043766499       2 (A1) B      2 (A1) A    ->    4 (A1) A      2 (B1) B     
 -0.0043766499       2 (A1) B      2 (A1) A    ->    2 (B1) A      4 (A1) B     
  0.0043766499       2 (A1) B      2 (A1) A    ->    4 (A1) B      2 (B1) A     
  0.0043766499       2 (A1) B      2 (A1) A    ->    2 (B1) B      4 (A1) A     
 -0.0007779024       3 (A1) A      2 (A1) B    ->    4 (A1) A      2 (B1) B     
 -0.0007779024       2 (A1) A      3 (A1) B    ->    2 (B1) A      4 (A1) B     
  0.0007779024       2 (A1) A      3 (A1) B    ->    4 (A1) B      2 (B1) A     
  0.0007779024       3 (A1) A      2 (A1) B    ->    2 (B1) B      4 (A1) A     
  0.0007779024       2 (A1) B      3 (A1) A    ->    4 (A1) A      2 (B1) B     
  0.0007779024       3 (A1) B      2 (A1) A    ->    2 (B1) A      4 (A1) B     
 -0.0007779024       3 (A1) B      2 (A1) A    ->    4 (A1) B      2 (B1) A     
 -0.0007779024       2 (A1) B      3 (A1) A    ->    2 (B1) B      4 (A1) A     

              Summary of significant orbitals:

               Number  Type             Irrep      Energy
               2       Occ  Alpha       2 (A1)     -1.1429
               5       Occ  Alpha       3 (A1)     -0.3706
               3       Occ  Alpha       1 (B1)     -0.4063
               4       Occ  Alpha       1 (B2)     -0.3998
               2       Occ  Beta        2 (A1)     -1.1429
               5       Occ  Beta        3 (A1)     -0.3706
               3       Occ  Beta        1 (B1)     -0.4063
               4       Occ  Beta        1 (B2)     -0.3998
               6       Vir  Alpha       4 (A1)      0.2429
               7       Vir  Alpha       2 (B1)      0.3072
               6       Vir  Beta        4 (A1)      0.2429
               7       Vir  Beta        2 (B1)      0.3072


 EEs and amplitudes of EOMEE has be exported to fchk file
Running a double precision version
      EOM-CCSD/MP2 left amplitudes will be solved using Davidson.
        Amplitudes will be solved using MOM  algorithm.
     Hard-coded thresholds: 
     LinDepThresh=1.00e-15  NormThresh=1.00e-06  ReorthogonThresh=1.00e-02

      Roots     MaxVec    MaxIter   Precond   Conv      Shift    
      1         120       60        1         1.00e-05  0.00e+00  
 ------------------------------------------------------------------------------
      Iter ConvRoots NVecs ResNorm Current eigenvalues (eV)
 ------------------------------------------------------------------------------
      0    0      1     1.46e-03   8.4577   
      1    0      2     2.13e-04   8.4578   
      2    1      3     6.25e-06   8.4578*  

     Davidson procedure converged

 Excited state properties for  EOMEE-CCSD transition 1/B1
 Dipole moment (a.u.): 0.088055 (X 0.000000, Y 0.000000, Z -0.088055)
 R-squared (a.u.): 27.631230 (XX 14.016790, YY 4.715175, ZZ 8.899265)
 Gauge origin (a.u.): (0.000000, 0.000000, 0.000000)
 Angular momentum (a.u.) against gauge origin: 
 (X 0.000000i, Y 0.000000i, Z 0.000000i)
 Traces of the OPDMs: Tr(AA) 5.000000, Tr(BB) 5.000000

        Solving for EOMEE-CCSD B2 singlet states.

Running a double precision version
        EOMEE-CCSD/MP2 right amplitudes will be solved using Davidson.
        Amplitudes will be solved using standard  algorithm.
     Hard-coded thresholds: 
     LinDepThresh=1.00e-15  NormThresh=1.00e-06  ReorthogonThresh=1.00e-02

      Roots     MaxVec    MaxIter   Precond   Conv      Shift    
      1         120       60        1         1.00e-05  0.00e+00  
 ------------------------------------------------------------------------------
      Iter ConvRoots NVecs ResNorm Current eigenvalues (eV)
 ------------------------------------------------------------------------------
      0    0      1     6.76e-02   6.5861   
      1    0      2     6.83e-03   3.1358   
      2    0      3     5.46e-04   2.9820   
      3    0      4     1.05e-04   2.9843   
      4    1      5     2.27e-06   2.9742*  

     Davidson procedure converged

 EOMEE transition 1/B2
 Total energy = -74.76314206 a.u.  Excitation energy = 2.97416620 eV.
 R0^2 = 0.0000  R1^2 = 0.7769  R2^2 = 0.2231  Res^2 = 2.27e-06
 Conv-d = yes

 Amplitude    Transitions between orbitals
 -0.6232758838       1 (B2) A                  ->    4 (A1) A                   
 -0.6232758838       1 (B2) B                  ->    4 (A1) B                   
 -0.2226454534       3 (A1) A      1 (B2) B    ->    4 (A1) A      4 (A1) B     
  0.2226454534       3 (A1) A      1 (B2) B    ->    4 (A1) B      4 (A1) A     
 -0.2226454534       1 (B2) A      3 (A1) B    ->    4 (A1) A      4 (A1) B     
  0.2226454534       1 (B2) A      3 (A1) B    ->    4 (A1) B      4 (A1) A     
  0.2226454534       3 (A1) B      1 (B2) A    ->    4 (A1) A      4 (A1) B     
 -0.2226454534       3 (A1) B      1 (B2) A    ->    4 (A1) B      4 (A1) A     
  0.2226454534       1 (B2) B      3 (A1) A    ->    4 (A1) A      4 (A1) B     
 -0.2226454534       1 (B2) B      3 (A1) A    ->    4 (A1) B      4 (A1) A     
 -0.1686748102       1 (B1) A      1 (B2) B    ->    4 (A1) A      2 (B1) B     
  0.1686748102       1 (B1) A      1 (B2) B    ->    2 (B1) B      4 (A1) A     
 -0.1686748102       1 (B2) A      1 (B1) B    ->    2 (B1) A      4 (A1) B     
  0.1686748102       1 (B2) A      1 (B1) B    ->    4 (A1) B      2 (B1) A     
  0.1686748102       1 (B1) B      1 (B2) A    ->    2 (B1) A      4 (A1) B     
 -0.1686748102       1 (B1) B      1 (B2) A    ->    4 (A1) B      2 (B1) A     
  0.1686748102       1 (B2) B      1 (B1) A    ->    4 (A1) A      2 (B1) B     
 -0.1686748102       1 (B2) B      1 (B1) A    ->    2 (B1) B      4 (A1) A     
 -0.1533026193       1 (B1) A      1 (B2) B    ->    2 (B1) A      4 (A1) B     
  0.1533026193       1 (B1) A      1 (B2) B    ->    4 (A1) B      2 (B1) A     
 -0.1533026193       1 (B2) A      1 (B1) B    ->    4 (A1) A      2 (B1) B     
  0.1533026193       1 (B2) A      1 (B1) B    ->    2 (B1) B      4 (A1) A     
  0.1533026193       1 (B1) B      1 (B2) A    ->    4 (A1) A      2 (B1) B     
 -0.1533026193       1 (B1) B      1 (B2) A    ->    2 (B1) B      4 (A1) A     
  0.1533026193       1 (B2) B      1 (B1) A    ->    2 (B1) A      4 (A1) B     
 -0.1533026193       1 (B2) B      1 (B1) A    ->    4 (A1) B      2 (B1) A     
 -0.0896295641       3 (A1) A      1 (B2) B    ->    2 (B1) A      2 (B1) B     
  0.0896295641       3 (A1) A      1 (B2) B    ->    2 (B1) B      2 (B1) A     
 -0.0896295641       1 (B2) A      3 (A1) B    ->    2 (B1) A      2 (B1) B     
  0.0896295641       1 (B2) A      3 (A1) B    ->    2 (B1) B      2 (B1) A     
  0.0896295641       3 (A1) B      1 (B2) A    ->    2 (B1) A      2 (B1) B     
 -0.0896295641       3 (A1) B      1 (B2) A    ->    2 (B1) B      2 (B1) A     
  0.0896295641       1 (B2) B      3 (A1) A    ->    2 (B1) A      2 (B1) B     
 -0.0896295641       1 (B2) B      3 (A1) A    ->    2 (B1) B      2 (B1) A     
  0.0409247923       2 (A1) A      1 (B2) B    ->    4 (A1) A      4 (A1) B     
 -0.0409247923       2 (A1) A      1 (B2) B    ->    4 (A1) B      4 (A1) A     
  0.0409247923       1 (B2) A      2 (A1) B    ->    4 (A1) A      4 (A1) B     
 -0.0409247923       1 (B2) A      2 (A1) B    ->    4 (A1) B      4 (A1) A     
 -0.0409247923       2 (A1) B      1 (B2) A    ->    4 (A1) A      4 (A1) B     
  0.0409247923       2 (A1) B      1 (B2) A    ->    4 (A1) B      4 (A1) A     
 -0.0409247923       1 (B2) B      2 (A1) A    ->    4 (A1) A      4 (A1) B     
  0.0409247923       1 (B2) B      2 (A1) A    ->    4 (A1) B      4 (A1) A     
 -0.0159517059       1 (B1) A      1 (B2) A    ->    4 (A1) A      2 (B1) A     
  0.0159517059       1 (B1) A      1 (B2) A    ->    2 (B1) A      4 (A1) A     
  0.0159517059       1 (B2) A      1 (B1) A    ->    4 (A1) A      2 (B1) A     
 -0.0159517059       1 (B2) A      1 (B1) A    ->    2 (B1) A      4 (A1) A     
 -0.0159517059       1 (B1) B      1 (B2) B    ->    4 (A1) B      2 (B1) B     
  0.0159517059       1 (B1) B      1 (B2) B    ->    2 (B1) B      4 (A1) B     
  0.0159517059       1 (B2) B      1 (B1) B    ->    4 (A1) B      2 (B1) B     
 -0.0159517059       1 (B2) B      1 (B1) B    ->    2 (B1) B      4 (A1) B     
  0.0063667752       2 (A1) A      1 (B2) B    ->    2 (B1) A      2 (B1) B     
 -0.0063667752       2 (A1) A      1 (B2) B    ->    2 (B1) B      2 (B1) A     
  0.0063667752       1 (B2) A      2 (A1) B    ->    2 (B1) A      2 (B1) B     
 -0.0063667752       1 (B2) A      2 (A1) B    ->    2 (B1) B      2 (B1) A     
 -0.0063667752       2 (A1) B      1 (B2) A    ->    2 (B1) A      2 (B1) B     
  0.0063667752       2 (A1) B      1 (B2) A    ->    2 (B1) B      2 (B1) A     
 -0.0063667752       1 (B2) B      2 (A1) A    ->    2 (B1) A      2 (B1) B     
  0.0063667752       1 (B2) B      2 (A1) A    ->    2 (B1) B      2 (B1) A     

              Summary of significant orbitals:

               Number  Type             Irrep      Energy
               2       Occ  Alpha       2 (A1)     -1.1429
               5       Occ  Alpha       3 (A1)     -0.3706
               3       Occ  Alpha       1 (B1)     -0.4063
               4       Occ  Alpha       1 (B2)     -0.3998
               2       Occ  Beta        2 (A1)     -1.1429
               5       Occ  Beta        3 (A1)     -0.3706
               3       Occ  Beta        1 (B1)     -0.4063
               4       Occ  Beta        1 (B2)     -0.3998
               6       Vir  Alpha       4 (A1)      0.2429
               7       Vir  Alpha       2 (B1)      0.3072
               6       Vir  Beta        4 (A1)      0.2429
               7       Vir  Beta        2 (B1)      0.3072


 EEs and amplitudes of EOMEE has be exported to fchk file
Running a double precision version
      EOM-CCSD/MP2 left amplitudes will be solved using Davidson.
        Amplitudes will be solved using MOM  algorithm.
     Hard-coded thresholds: 
     LinDepThresh=1.00e-15  NormThresh=1.00e-06  ReorthogonThresh=1.00e-02

      Roots     MaxVec    MaxIter   Precond   Conv      Shift    
      1         120       60        1         1.00e-05  0.00e+00  
 ------------------------------------------------------------------------------
      Iter ConvRoots NVecs ResNorm Current eigenvalues (eV)
 ------------------------------------------------------------------------------
      0    0      1     2.11e-03   2.9742   
      1    0      2     3.02e-04   2.9752   
      2    0      3     1.80e-05   2.9749   
      3    1      4     3.54e-06   2.9749*  

     Davidson procedure converged

 Excited state properties for  EOMEE-CCSD transition 1/B2
 Dipole moment (a.u.): 0.022590 (X 0.000000, Y 0.000000, Z -0.022590)
 R-squared (a.u.): 27.902435 (XX 14.301876, YY 4.174280, ZZ 9.426279)
 Gauge origin (a.u.): (0.000000, 0.000000, 0.000000)
 Angular momentum (a.u.) against gauge origin: 
 (X 0.000000i, Y 0.000000i, Z 0.000000i)
 Traces of the OPDMs: Tr(AA) 5.000000, Tr(BB) 5.000000

        Solving for EOMEE-CCSD A1 triplet states.

Running a double precision version
        EOMEE-CCSD/MP2 right amplitudes will be solved using Davidson.
        Amplitudes will be solved using standard  algorithm.
     Hard-coded thresholds: 
     LinDepThresh=1.00e-15  NormThresh=1.00e-06  ReorthogonThresh=1.00e-02

      Roots     MaxVec    MaxIter   Precond   Conv      Shift    
      1         120       60        1         1.00e-05  0.00e+00  
 ------------------------------------------------------------------------------
      Iter ConvRoots NVecs ResNorm Current eigenvalues (eV)
 ------------------------------------------------------------------------------
      0    0      1     3.58e-02   5.9373   
      1    0      2     1.54e-02   4.2761   
      2    0      3     3.73e-03   3.5292   
      3    0      4     9.59e-04   3.3371   
      4    0      5     7.27e-05   3.3029   
      5    1      6     2.20e-06   3.3009*  

     Davidson procedure converged

 EOMEE transition 1/A1
 Total energy = -74.75113509 a.u.  Excitation energy = 3.30089259 eV.
 R0^2 = 0.0000  R1^2 = 0.9940  R2^2 = 0.0060  Res^2 = 2.20e-06
 Conv-d = yes

 Amplitude    Transitions between orbitals
  0.5911425702       3 (A1) A                  ->    4 (A1) A                   
 -0.5911425702       3 (A1) B                  ->    4 (A1) B                   
  0.3824468500       1 (B1) A                  ->    2 (B1) A                   
 -0.3824468500       1 (B1) B                  ->    2 (B1) B                   
 -0.0359443592       2 (A1) A                  ->    4 (A1) A                   
  0.0359443592       2 (A1) B                  ->    4 (A1) B                   
  0.0400357830       3 (A1) A      1 (B1) B    ->    2 (B1) A      4 (A1) B     
 -0.0400357830       3 (A1) A      1 (B1) B    ->    4 (A1) B      2 (B1) A     
 -0.0400357830       1 (B1) A      3 (A1) B    ->    4 (A1) A      2 (B1) B     
  0.0400357830       1 (B1) A      3 (A1) B    ->    2 (B1) B      4 (A1) A     
  0.0400357830       3 (A1) B      1 (B1) A    ->    4 (A1) A      2 (B1) B     
 -0.0400357830       3 (A1) B      1 (B1) A    ->    2 (B1) B      4 (A1) A     
 -0.0400357830       1 (B1) B      3 (A1) A    ->    2 (B1) A      4 (A1) B     
  0.0400357830       1 (B1) B      3 (A1) A    ->    4 (A1) B      2 (B1) A     
  0.0286069379       3 (A1) A      1 (B1) B    ->    4 (A1) A      2 (B1) B     
 -0.0286069379       3 (A1) A      1 (B1) B    ->    2 (B1) B      4 (A1) A     
 -0.0286069379       1 (B1) A      3 (A1) B    ->    2 (B1) A      4 (A1) B     
  0.0286069379       1 (B1) A      3 (A1) B    ->    4 (A1) B      2 (B1) A     
  0.0286069379       3 (A1) B      1 (B1) A    ->    2 (B1) A      4 (A1) B     
 -0.0286069379       3 (A1) B      1 (B1) A    ->    4 (A1) B      2 (B1) A     
 -0.0286069379       1 (B1) B      3 (A1) A    ->    4 (A1) A      2 (B1) B     
  0.0286069379       1 (B1) B      3 (A1) A    ->    2 (B1) B      4 (A1) A     
  0.0211819912       2 (A1) A      1 (B1) B    ->    4 (A1) A      2 (B1) B     
 -0.0211819912       2 (A1) A      1 (B1) B    ->    2 (B1) B      4 (A1) A     
 -0.0211819912       1 (B1) A      2 (A1) B    ->    2 (B1) A      4 (A1) B     
  0.0211819912       1 (B1) A      2 (A1) B    ->    4 (A1) B      2 (B1) A     
  0.0211819912       2 (A1) B      1 (B1) A    ->    2 (B1) A      4 (A1) B     
 -0.0211819912       2 (A1) B      1 (B1) A    ->    4 (A1) B      2 (B1) A     
 -0.0211819912       1 (B1) B      2 (A1) A    ->    4 (A1) A      2 (B1) B     
  0.0211819912       1 (B1) B      2 (A1) A    ->    2 (B1) B      4 (A1) A     
  0.0086060961       2 (A1) A      3 (A1) B    ->    2 (B1) A      2 (B1) B     
 -0.0086060961       3 (A1) A      2 (A1) B    ->    2 (B1) A      2 (B1) B     
 -0.0086060961       2 (A1) A      3 (A1) B    ->    2 (B1) B      2 (B1) A     
  0.0086060961       3 (A1) A      2 (A1) B    ->    2 (B1) B      2 (B1) A     
 -0.0086060961       3 (A1) B      2 (A1) A    ->    2 (B1) A      2 (B1) B     
  0.0086060961       2 (A1) B      3 (A1) A    ->    2 (B1) A      2 (B1) B     
 -0.0086060961       2 (A1) B      3 (A1) A    ->    2 (B1) B      2 (B1) A     
  0.0086060961       3 (A1) B      2 (A1) A    ->    2 (B1) B      2 (B1) A     
 -0.0061643533       2 (A1) A      1 (B1) B    ->    2 (B1) A      4 (A1) B     
  0.0061643533       2 (A1) A      1 (B1) B    ->    4 (A1) B      2 (B1) A     
  0.0061643533       1 (B1) A      2 (A1) B    ->    4 (A1) A      2 (B1) B     
 -0.0061643533       1 (B1) A      2 (A1) B    ->    2 (B1) B      4 (A1) A     
 -0.0061643533       2 (A1) B      1 (B1) A    ->    4 (A1) A      2 (B1) B     
  0.0061643533       2 (A1) B      1 (B1) A    ->    2 (B1) B      4 (A1) A     
  0.0061643533       1 (B1) B      2 (A1) A    ->    2 (B1) A      4 (A1) B     
 -0.0061643533       1 (B1) B      2 (A1) A    ->    4 (A1) B      2 (B1) A     
  0.0030492069       2 (A1) A      1 (B1) A    ->    4 (A1) A      2 (B1) A     
 -0.0030492069       2 (A1) A      1 (B1) A    ->    2 (B1) A      4 (A1) A     
 -0.0030492069       1 (B1) A      2 (A1) A    ->    4 (A1) A      2 (B1) A     
  0.0030492069       1 (B1) A      2 (A1) A    ->    2 (B1) A      4 (A1) A     
 -0.0030492069       2 (A1) B      1 (B1) B    ->    4 (A1) B      2 (B1) B     
  0.0030492069       2 (A1) B      1 (B1) B    ->    2 (B1) B      4 (A1) B     
  0.0030492069       1 (B1) B      2 (A1) B    ->    4 (A1) B      2 (B1) B     
 -0.0030492069       1 (B1) B      2 (A1) B    ->    2 (B1) B      4 (A1) B     
 -0.0012593499       2 (A1) A      3 (A1) B    ->    4 (A1) A      4 (A1) B     
  0.0012593499       3 (A1) A      2 (A1) B    ->    4 (A1) A      4 (A1) B     
  0.0012593499       2 (A1) A      3 (A1) B    ->    4 (A1) B      4 (A1) A     
 -0.0012593499       3 (A1) A      2 (A1) B    ->    4 (A1) B      4 (A1) A     
  0.0012593499       3 (A1) B      2 (A1) A    ->    4 (A1) A      4 (A1) B     
 -0.0012593499       2 (A1) B      3 (A1) A    ->    4 (A1) A      4 (A1) B     
  0.0012593499       2 (A1) B      3 (A1) A    ->    4 (A1) B      4 (A1) A     
 -0.0012593499       3 (A1) B      2 (A1) A    ->    4 (A1) B      4 (A1) A     
 -0.0001623198       3 (A1) A      1 (B1) A    ->    4 (A1) A      2 (B1) A     
  0.0001623198       3 (A1) A      1 (B1) A    ->    2 (B1) A      4 (A1) A     
  0.0001623198       1 (B1) A      3 (A1) A    ->    4 (A1) A      2 (B1) A     
 -0.0001623198       1 (B1) A      3 (A1) A    ->    2 (B1) A      4 (A1) A     
  0.0001623198       3 (A1) B      1 (B1) B    ->    4 (A1) B      2 (B1) B     
 -0.0001623198       3 (A1) B      1 (B1) B    ->    2 (B1) B      4 (A1) B     
 -0.0001623198       1 (B1) B      3 (A1) B    ->    4 (A1) B      2 (B1) B     
  0.0001623198       1 (B1) B      3 (A1) B    ->    2 (B1) B      4 (A1) B     

              Summary of significant orbitals:

               Number  Type             Irrep      Energy
               2       Occ  Alpha       2 (A1)     -1.1429
               5       Occ  Alpha       3 (A1)     -0.3706
               3       Occ  Alpha       1 (B1)     -0.4063
               2       Occ  Beta        2 (A1)     -1.1429
               5       Occ  Beta        3 (A1)     -0.3706
               3       Occ  Beta        1 (B1)     -0.4063
               6       Vir  Alpha       4 (A1)      0.2429
               7       Vir  Alpha       2 (B1)      0.3072
               6       Vir  Beta        4 (A1)      0.2429
               7       Vir  Beta        2 (B1)      0.3072


 EEs and amplitudes of EOMEE has be exported to fchk file
Running a double precision version
      EOM-CCSD/MP2 left amplitudes will be solved using Davidson.
        Amplitudes will be solved using MOM  algorithm.
     Hard-coded thresholds: 
     LinDepThresh=1.00e-15  NormThresh=1.00e-06  ReorthogonThresh=1.00e-02

      Roots     MaxVec    MaxIter   Precond   Conv      Shift    
      1         120       60        1         1.00e-05  0.00e+00  
 ------------------------------------------------------------------------------
      Iter ConvRoots NVecs ResNorm Current eigenvalues (eV)
 ------------------------------------------------------------------------------
      0    0      1     6.79e-04   3.3009   
      1    0      2     6.17e-05   3.3003   
      2    1      3     2.71e-06   3.3003*  

     Davidson procedure converged

 Excited state properties for  EOMEE-CCSD transition 1/A1
 Dipole moment (a.u.): 0.094454 (X 0.000000, Y 0.000000, Z -0.094454)
 R-squared (a.u.): 27.697694 (XX 14.068072, YY 4.740360, ZZ 8.889262)
 Gauge origin (a.u.): (0.000000, 0.000000, 0.000000)
 Angular momentum (a.u.) against gauge origin: 
 (X 0.000000i, Y 0.000000i, Z 0.000000i)
 Traces of the OPDMs: Tr(AA) 5.000000, Tr(BB) 5.000000

        Solving for EOMEE-CCSD A2 triplet states.

Running a double precision version
        EOMEE-CCSD/MP2 right amplitudes will be solved using Davidson.
        Amplitudes will be solved using standard  algorithm.
     Hard-coded thresholds: 
     LinDepThresh=1.00e-15  NormThresh=1.00e-06  ReorthogonThresh=1.00e-02

      Roots     MaxVec    MaxIter   Precond   Conv      Shift    
      1         120       60        1         1.00e-05  0.00e+00  
 ------------------------------------------------------------------------------
      Iter ConvRoots NVecs ResNorm Current eigenvalues (eV)
 ------------------------------------------------------------------------------
      0    0      1     4.35e-02   6.1841   
      1    0      2     9.93e-03   3.8734   
      2    0      3     6.61e-04   3.6094   
      3    0      4     2.27e-05   3.6079   
      4    1      5     4.24e-06   3.6078*  

     Davidson procedure converged

 EOMEE transition 1/A2
 Total energy = -74.73985753 a.u.  Excitation energy = 3.60777059 eV.
 R0^2 = 0.0000  R1^2 = 0.8176  R2^2 = 0.1824  Res^2 = 4.24e-06
 Conv-d = yes

 Amplitude    Transitions between orbitals
 -0.6393659434       1 (B2) A                  ->    2 (B1) A                   
  0.6393659434       1 (B2) B                  ->    2 (B1) B                   
  0.2131719711       3 (A1) A      1 (B2) B    ->    4 (A1) A      2 (B1) B     
 -0.2131719711       3 (A1) A      1 (B2) B    ->    2 (B1) B      4 (A1) A     
 -0.2131719711       1 (B2) A      3 (A1) B    ->    2 (B1) A      4 (A1) B     
  0.2131719711       1 (B2) A      3 (A1) B    ->    4 (A1) B      2 (B1) A     
  0.2131719711       3 (A1) B      1 (B2) A    ->    2 (B1) A      4 (A1) B     
 -0.2131719711       3 (A1) B      1 (B2) A    ->    4 (A1) B      2 (B1) A     
 -0.2131719711       1 (B2) B      3 (A1) A    ->    4 (A1) A      2 (B1) B     
  0.2131719711       1 (B2) B      3 (A1) A    ->    2 (B1) B      4 (A1) A     
  0.1553989717       1 (B1) A      1 (B2) B    ->    4 (A1) A      4 (A1) B     
 -0.1553989717       1 (B1) A      1 (B2) B    ->    4 (A1) B      4 (A1) A     
 -0.1553989717       1 (B2) A      1 (B1) B    ->    4 (A1) A      4 (A1) B     
  0.1553989717       1 (B2) A      1 (B1) B    ->    4 (A1) B      4 (A1) A     
  0.1553989717       1 (B1) B      1 (B2) A    ->    4 (A1) A      4 (A1) B     
 -0.1553989717       1 (B1) B      1 (B2) A    ->    4 (A1) B      4 (A1) A     
 -0.1553989717       1 (B2) B      1 (B1) A    ->    4 (A1) A      4 (A1) B     
  0.1553989717       1 (B2) B      1 (B1) A    ->    4 (A1) B      4 (A1) A     
  0.1095567083       1 (B1) A      1 (B2) B    ->    2 (B1) A      2 (B1) B     
 -0.1095567083       1 (B1) A      1 (B2) B    ->    2 (B1) B      2 (B1) A     
 -0.1095567083       1 (B2) A      1 (B1) B    ->    2 (B1) A      2 (B1) B     
  0.1095567083       1 (B2) A      1 (B1) B    ->    2 (B1) B      2 (B1) A     
  0.1095567083       1 (B1) B      1 (B2) A    ->    2 (B1) A      2 (B1) B     
 -0.1095567083       1 (B1) B      1 (B2) A    ->    2 (B1) B      2 (B1) A     
 -0.1095567083       1 (B2) B      1 (B1) A    ->    2 (B1) A      2 (B1) B     
  0.1095567083       1 (B2) B      1 (B1) A    ->    2 (B1) B      2 (B1) A     
  0.0927617636       3 (A1) A      1 (B2) B    ->    2 (B1) A      4 (A1) B     
 -0.0927617636       3 (A1) A      1 (B2) B    ->    4 (A1) B      2 (B1) A     
 -0.0927617636       1 (B2) A      3 (A1) B    ->    4 (A1) A      2 (B1) B     
  0.0927617636       1 (B2) A      3 (A1) B    ->    2 (B1) B      4 (A1) A     
  0.0927617636       3 (A1) B      1 (B2) A    ->    4 (A1) A      2 (B1) B     
 -0.0927617636       3 (A1) B      1 (B2) A    ->    2 (B1) B      4 (A1) A     
 -0.0927617636       1 (B2) B      3 (A1) A    ->    2 (B1) A      4 (A1) B     
  0.0927617636       1 (B2) B      3 (A1) A    ->    4 (A1) B      2 (B1) A     
 -0.0268511481       2 (A1) A      1 (B2) B    ->    4 (A1) A      2 (B1) B     
  0.0268511481       2 (A1) A      1 (B2) B    ->    2 (B1) B      4 (A1) A     
  0.0268511481       1 (B2) A      2 (A1) B    ->    2 (B1) A      4 (A1) B     
 -0.0268511481       1 (B2) A      2 (A1) B    ->    4 (A1) B      2 (B1) A     
 -0.0268511481       2 (A1) B      1 (B2) A    ->    2 (B1) A      4 (A1) B     
  0.0268511481       2 (A1) B      1 (B2) A    ->    4 (A1) B      2 (B1) A     
  0.0268511481       1 (B2) B      2 (A1) A    ->    4 (A1) A      2 (B1) B     
 -0.0268511481       1 (B2) B      2 (A1) A    ->    2 (B1) B      4 (A1) A     
  0.0138656809       3 (A1) A      1 (B2) A    ->    4 (A1) A      2 (B1) A     
 -0.0138656809       3 (A1) A      1 (B2) A    ->    2 (B1) A      4 (A1) A     
 -0.0138656809       1 (B2) A      3 (A1) A    ->    4 (A1) A      2 (B1) A     
  0.0138656809       1 (B2) A      3 (A1) A    ->    2 (B1) A      4 (A1) A     
 -0.0138656809       3 (A1) B      1 (B2) B    ->    4 (A1) B      2 (B1) B     
  0.0138656809       3 (A1) B      1 (B2) B    ->    2 (B1) B      4 (A1) B     
  0.0138656809       1 (B2) B      3 (A1) B    ->    4 (A1) B      2 (B1) B     
 -0.0138656809       1 (B2) B      3 (A1) B    ->    2 (B1) B      4 (A1) B     
  0.0094006012       2 (A1) A      1 (B2) B    ->    2 (B1) A      4 (A1) B     
 -0.0094006012       2 (A1) A      1 (B2) B    ->    4 (A1) B      2 (B1) A     
 -0.0094006012       1 (B2) A      2 (A1) B    ->    4 (A1) A      2 (B1) B     
  0.0094006012       1 (B2) A      2 (A1) B    ->    2 (B1) B      4 (A1) A     
  0.0094006012       2 (A1) B      1 (B2) A    ->    4 (A1) A      2 (B1) B     
 -0.0094006012       2 (A1) B      1 (B2) A    ->    2 (B1) B      4 (A1) A     
 -0.0094006012       1 (B2) B      2 (A1) A    ->    2 (B1) A      4 (A1) B     
  0.0094006012       1 (B2) B      2 (A1) A    ->    4 (A1) B      2 (B1) A     
 -0.0033213107       2 (A1) A      1 (B2) A    ->    4 (A1) A      2 (B1) A     
  0.0033213107       2 (A1) A      1 (B2) A    ->    2 (B1) A      4 (A1) A     
  0.0033213107       1 (B2) A      2 (A1) A    ->    4 (A1) A      2 (B1) A     
 -0.0033213107       1 (B2) A      2 (A1) A    ->    2 (B1) A      4 (A1) A     
  0.0033213107       2 (A1) B      1 (B2) B    ->    4 (A1) B      2 (B1) B     
 -0.0033213107       2 (A1) B      1 (B2) B    ->    2 (B1) B      4 (A1) B     
 -0.0033213107       1 (B2) B      2 (A1) B    ->    4 (A1) B      2 (B1) B     
  0.0033213107       1 (B2) B      2 (A1) B    ->    2 (B1) B      4 (A1) B     

              Summary of significant orbitals:

               Number  Type             Irrep      Energy
               2       Occ  Alpha       2 (A1)     -1.1429
               5       Occ  Alpha       3 (A1)     -0.3706
               3       Occ  Alpha       1 (B1)     -0.4063
               4       Occ  Alpha       1 (B2)     -0.3998
               2       Occ  Beta        2 (A1)     -1.1429
               5       Occ  Beta        3 (A1)     -0.3706
               3       Occ  Beta        1 (B1)     -0.4063
               4       Occ  Beta        1 (B2)     -0.3998
               6       Vir  Alpha       4 (A1)      0.2429
               7       Vir  Alpha       2 (B1)      0.3072
               6       Vir  Beta        4 (A1)      0.2429
               7       Vir  Beta        2 (B1)      0.3072


 EEs and amplitudes of EOMEE has be exported to fchk file
Running a double precision version
      EOM-CCSD/MP2 left amplitudes will be solved using Davidson.
        Amplitudes will be solved using MOM  algorithm.
     Hard-coded thresholds: 
     LinDepThresh=1.00e-15  NormThresh=1.00e-06  ReorthogonThresh=1.00e-02

      Roots     MaxVec    MaxIter   Precond   Conv      Shift    
      1         120       60        1         1.00e-05  0.00e+00  
 ------------------------------------------------------------------------------
      Iter ConvRoots NVecs ResNorm Current eigenvalues (eV)
 ------------------------------------------------------------------------------
      0    0      1     1.64e-03   3.6078   
      1    0      2     1.83e-04   3.6063   
      2    0      3     2.32e-05   3.6065   
      3    1      4     4.40e-06   3.6065*  

     Davidson procedure converged

 Excited state properties for  EOMEE-CCSD transition 1/A2
 Dipole moment (a.u.): 0.054390 (X 0.000000, Y 0.000000, Z -0.054390)
 R-squared (a.u.): 28.193487 (XX 14.690174, YY 4.157222, ZZ 9.346091)
 Gauge origin (a.u.): (0.000000, 0.000000, 0.000000)
 Angular momentum (a.u.) against gauge origin: 
 (X 0.000000i, Y 0.000000i, Z 0.000000i)
 Traces of the OPDMs: Tr(AA) 5.000000, Tr(BB) 5.000000

        Solving for EOMEE-CCSD B1 triplet states.

Running a double precision version
        EOMEE-CCSD/MP2 right amplitudes will be solved using Davidson.
        Amplitudes will be solved using standard  algorithm.
     Hard-coded thresholds: 
     LinDepThresh=1.00e-15  NormThresh=1.00e-06  ReorthogonThresh=1.00e-02

      Roots     MaxVec    MaxIter   Precond   Conv      Shift    
      1         120       60        1         1.00e-05  0.00e+00  
 ------------------------------------------------------------------------------
      Iter ConvRoots NVecs ResNorm Current eigenvalues (eV)
 ------------------------------------------------------------------------------
      0    0      1     4.07e-02   7.9650   
      1    0      2     2.56e-02   6.6874   
      2    0      3     7.76e-03   5.2746   
      3    0      4     2.56e-03   4.8066   
      4    0      5     5.02e-04   4.7005   
      5    0      6     2.70e-04   4.6844   
      6    0      7     5.36e-05   4.6824   
      7    1      8     3.23e-06   4.6838*  

     Davidson procedure converged

 EOMEE transition 1/B1
 Total energy = -74.70031278 a.u.  Excitation energy = 4.68383776 eV.
 R0^2 = 0.0000  R1^2 = 0.9297  R2^2 = 0.0703  Res^2 = 3.23e-06
 Conv-d = yes

 Amplitude    Transitions between orbitals
  0.4832476606       3 (A1) A                  ->    2 (B1) A                   
 -0.4832476606       3 (A1) B                  ->    2 (B1) B                   
  0.4807419679       1 (B1) A                  ->    4 (A1) A                   
 -0.4807419679       1 (B1) B                  ->    4 (A1) B                   
 -0.0151408344       2 (A1) A                  ->    2 (B1) A                   
  0.0151408344       2 (A1) B                  ->    2 (B1) B                   
 -0.1082968190       3 (A1) A      3 (A1) B    ->    4 (A1) A      2 (B1) B     
  0.1082968190       3 (A1) A      3 (A1) B    ->    2 (B1) A      4 (A1) B     
 -0.1082968190       3 (A1) A      3 (A1) B    ->    4 (A1) B      2 (B1) A     
  0.1082968190       3 (A1) A      3 (A1) B    ->    2 (B1) B      4 (A1) A     
  0.1082968190       3 (A1) B      3 (A1) A    ->    4 (A1) A      2 (B1) B     
 -0.1082968190       3 (A1) B      3 (A1) A    ->    2 (B1) A      4 (A1) B     
  0.1082968190       3 (A1) B      3 (A1) A    ->    4 (A1) B      2 (B1) A     
 -0.1082968190       3 (A1) B      3 (A1) A    ->    2 (B1) B      4 (A1) A     
  0.0963329896       3 (A1) A      1 (B1) B    ->    4 (A1) A      4 (A1) B     
 -0.0963329896       3 (A1) A      1 (B1) B    ->    4 (A1) B      4 (A1) A     
 -0.0963329896       1 (B1) A      3 (A1) B    ->    4 (A1) A      4 (A1) B     
  0.0963329896       1 (B1) A      3 (A1) B    ->    4 (A1) B      4 (A1) A     
  0.0963329896       3 (A1) B      1 (B1) A    ->    4 (A1) A      4 (A1) B     
 -0.0963329896       3 (A1) B      1 (B1) A    ->    4 (A1) B      4 (A1) A     
 -0.0963329896       1 (B1) B      3 (A1) A    ->    4 (A1) A      4 (A1) B     
  0.0963329896       1 (B1) B      3 (A1) A    ->    4 (A1) B      4 (A1) A     
 -0.0875286949       3 (A1) A      1 (B1) B    ->    2 (B1) A      2 (B1) B     
  0.0875286949       3 (A1) A      1 (B1) B    ->    2 (B1) B      2 (B1) A     
  0.0875286949       1 (B1) A      3 (A1) B    ->    2 (B1) A      2 (B1) B     
 -0.0875286949       1 (B1) A      3 (A1) B    ->    2 (B1) B      2 (B1) A     
 -0.0875286949       3 (A1) B      1 (B1) A    ->    2 (B1) A      2 (B1) B     
  0.0875286949       3 (A1) B      1 (B1) A    ->    2 (B1) B      2 (B1) A     
  0.0875286949       1 (B1) B      3 (A1) A    ->    2 (B1) A      2 (B1) B     
 -0.0875286949       1 (B1) B      3 (A1) A    ->    2 (B1) B      2 (B1) A     
  0.0763480852       1 (B1) A      1 (B1) B    ->    4 (A1) A      2 (B1) B     
 -0.0763480852       1 (B1) A      1 (B1) B    ->    2 (B1) A      4 (A1) B     
  0.0763480852       1 (B1) A      1 (B1) B    ->    4 (A1) B      2 (B1) A     
 -0.0763480852       1 (B1) A      1 (B1) B    ->    2 (B1) B      4 (A1) A     
 -0.0763480852       1 (B1) B      1 (B1) A    ->    4 (A1) A      2 (B1) B     
  0.0763480852       1 (B1) B      1 (B1) A    ->    2 (B1) A      4 (A1) B     
 -0.0763480852       1 (B1) B      1 (B1) A    ->    4 (A1) B      2 (B1) A     
  0.0763480852       1 (B1) B      1 (B1) A    ->    2 (B1) B      4 (A1) A     
  0.0166109458       2 (A1) A      3 (A1) B    ->    4 (A1) A      2 (B1) B     
 -0.0166109458       3 (A1) A      2 (A1) B    ->    2 (B1) A      4 (A1) B     
  0.0166109458       3 (A1) A      2 (A1) B    ->    4 (A1) B      2 (B1) A     
 -0.0166109458       2 (A1) A      3 (A1) B    ->    2 (B1) B      4 (A1) A     
 -0.0166109458       3 (A1) B      2 (A1) A    ->    4 (A1) A      2 (B1) B     
  0.0166109458       2 (A1) B      3 (A1) A    ->    2 (B1) A      4 (A1) B     
 -0.0166109458       2 (A1) B      3 (A1) A    ->    4 (A1) B      2 (B1) A     
  0.0166109458       3 (A1) B      2 (A1) A    ->    2 (B1) B      4 (A1) A     
  0.0152835132       2 (A1) A      1 (B1) B    ->    2 (B1) A      2 (B1) B     
 -0.0152835132       2 (A1) A      1 (B1) B    ->    2 (B1) B      2 (B1) A     
 -0.0152835132       1 (B1) A      2 (A1) B    ->    2 (B1) A      2 (B1) B     
  0.0152835132       1 (B1) A      2 (A1) B    ->    2 (B1) B      2 (B1) A     
  0.0152835132       2 (A1) B      1 (B1) A    ->    2 (B1) A      2 (B1) B     
 -0.0152835132       2 (A1) B      1 (B1) A    ->    2 (B1) B      2 (B1) A     
 -0.0152835132       1 (B1) B      2 (A1) A    ->    2 (B1) A      2 (B1) B     
  0.0152835132       1 (B1) B      2 (A1) A    ->    2 (B1) B      2 (B1) A     
 -0.0100908850       2 (A1) A      1 (B1) B    ->    4 (A1) A      4 (A1) B     
  0.0100908850       2 (A1) A      1 (B1) B    ->    4 (A1) B      4 (A1) A     
  0.0100908850       1 (B1) A      2 (A1) B    ->    4 (A1) A      4 (A1) B     
 -0.0100908850       1 (B1) A      2 (A1) B    ->    4 (A1) B      4 (A1) A     
 -0.0100908850       2 (A1) B      1 (B1) A    ->    4 (A1) A      4 (A1) B     
  0.0100908850       2 (A1) B      1 (B1) A    ->    4 (A1) B      4 (A1) A     
  0.0100908850       1 (B1) B      2 (A1) A    ->    4 (A1) A      4 (A1) B     
 -0.0100908850       1 (B1) B      2 (A1) A    ->    4 (A1) B      4 (A1) A     
  0.0028774044       2 (A1) A      2 (A1) B    ->    4 (A1) A      2 (B1) B     
 -0.0028774044       2 (A1) A      2 (A1) B    ->    2 (B1) A      4 (A1) B     
  0.0028774044       2 (A1) A      2 (A1) B    ->    4 (A1) B      2 (B1) A     
 -0.0028774044       2 (A1) A      2 (A1) B    ->    2 (B1) B      4 (A1) A     
 -0.0028774044       2 (A1) B      2 (A1) A    ->    4 (A1) A      2 (B1) B     
  0.0028774044       2 (A1) B      2 (A1) A    ->    2 (B1) A      4 (A1) B     
 -0.0028774044       2 (A1) B      2 (A1) A    ->    4 (A1) B      2 (B1) A     
  0.0028774044       2 (A1) B      2 (A1) A    ->    2 (B1) B      4 (A1) A     
  0.0022312231       1 (B2) A      1 (B2) B    ->    4 (A1) A      2 (B1) B     
 -0.0022312231       1 (B2) A      1 (B2) B    ->    2 (B1) A      4 (A1) B     
  0.0022312231       1 (B2) A      1 (B2) B    ->    4 (A1) B      2 (B1) A     
 -0.0022312231       1 (B2) A      1 (B2) B    ->    2 (B1) B      4 (A1) A     
 -0.0022312231       1 (B2) B      1 (B2) A    ->    4 (A1) A      2 (B1) B     
  0.0022312231       1 (B2) B      1 (B2) A    ->    2 (B1) A      4 (A1) B     
 -0.0022312231       1 (B2) B      1 (B2) A    ->    4 (A1) B      2 (B1) A     
  0.0022312231       1 (B2) B      1 (B2) A    ->    2 (B1) B      4 (A1) A     
  0.0021783144       2 (A1) A      3 (A1) A    ->    4 (A1) A      2 (B1) A     
 -0.0021783144       3 (A1) A      2 (A1) A    ->    4 (A1) A      2 (B1) A     
 -0.0021783144       2 (A1) A      3 (A1) A    ->    2 (B1) A      4 (A1) A     
  0.0021783144       3 (A1) A      2 (A1) A    ->    2 (B1) A      4 (A1) A     
 -0.0021783144       2 (A1) B      3 (A1) B    ->    4 (A1) B      2 (B1) B     
  0.0021783144       3 (A1) B      2 (A1) B    ->    4 (A1) B      2 (B1) B     
  0.0021783144       2 (A1) B      3 (A1) B    ->    2 (B1) B      4 (A1) B     
 -0.0021783144       3 (A1) B      2 (A1) B    ->    2 (B1) B      4 (A1) B     
  0.0013143074       3 (A1) A      2 (A1) B    ->    4 (A1) A      2 (B1) B     
 -0.0013143074       2 (A1) A      3 (A1) B    ->    2 (B1) A      4 (A1) B     
  0.0013143074       2 (A1) A      3 (A1) B    ->    4 (A1) B      2 (B1) A     
 -0.0013143074       3 (A1) A      2 (A1) B    ->    2 (B1) B      4 (A1) A     
 -0.0013143074       2 (A1) B      3 (A1) A    ->    4 (A1) A      2 (B1) B     
  0.0013143074       3 (A1) B      2 (A1) A    ->    2 (B1) A      4 (A1) B     
 -0.0013143074       3 (A1) B      2 (A1) A    ->    4 (A1) B      2 (B1) A     
  0.0013143074       2 (A1) B      3 (A1) A    ->    2 (B1) B      4 (A1) A     

              Summary of significant orbitals:

               Number  Type             Irrep      Energy
               2       Occ  Alpha       2 (A1)     -1.1429
               5       Occ  Alpha       3 (A1)     -0.3706
               3       Occ  Alpha       1 (B1)     -0.4063
               4       Occ  Alpha       1 (B2)     -0.3998
               2       Occ  Beta        2 (A1)     -1.1429
               5       Occ  Beta        3 (A1)     -0.3706
               3       Occ  Beta        1 (B1)     -0.4063
               4       Occ  Beta        1 (B2)     -0.3998
               6       Vir  Alpha       4 (A1)      0.2429
               7       Vir  Alpha       2 (B1)      0.3072
               6       Vir  Beta        4 (A1)      0.2429
               7       Vir  Beta        2 (B1)      0.3072


 EEs and amplitudes of EOMEE has be exported to fchk file
Running a double precision version
      EOM-CCSD/MP2 left amplitudes will be solved using Davidson.
        Amplitudes will be solved using MOM  algorithm.
     Hard-coded thresholds: 
     LinDepThresh=1.00e-15  NormThresh=1.00e-06  ReorthogonThresh=1.00e-02

      Roots     MaxVec    MaxIter   Precond   Conv      Shift    
      1         120       60        1         1.00e-05  0.00e+00  
 ------------------------------------------------------------------------------
      Iter ConvRoots NVecs ResNorm Current eigenvalues (eV)
 ------------------------------------------------------------------------------
      0    0      1     9.38e-04   4.6838   
      1    0      2     2.66e-04   4.6829   
      2    0      3     5.24e-05   4.6830   
      3    0      4     2.62e-05   4.6831   
      4    1      5     3.07e-06   4.6831*  

     Davidson procedure converged

 Excited state properties for  EOMEE-CCSD transition 1/B1
 Dipole moment (a.u.): 0.096223 (X 0.000000, Y 0.000000, Z -0.096223)
 R-squared (a.u.): 27.779193 (XX 14.057016, YY 4.734164, ZZ 8.988013)
 Gauge origin (a.u.): (0.000000, 0.000000, 0.000000)
 Angular momentum (a.u.) against gauge origin: 
 (X 0.000000i, Y 0.000000i, Z 0.000000i)
 Traces of the OPDMs: Tr(AA) 5.000000, Tr(BB) 5.000000

        Solving for EOMEE-CCSD B2 triplet states.

Running a double precision version
        EOMEE-CCSD/MP2 right amplitudes will be solved using Davidson.
        Amplitudes will be solved using standard  algorithm.
     Hard-coded thresholds: 
     LinDepThresh=1.00e-15  NormThresh=1.00e-06  ReorthogonThresh=1.00e-02

      Roots     MaxVec    MaxIter   Precond   Conv      Shift    
      1         120       60        1         1.00e-05  0.00e+00  
 ------------------------------------------------------------------------------
      Iter ConvRoots NVecs ResNorm Current eigenvalues (eV)
 ------------------------------------------------------------------------------
      0    0      1     4.85e-02   5.0825   
      1    0      2     4.91e-03   2.6275   
      2    0      3     1.65e-04   2.4985   
      3    0      4     2.29e-05   2.5056   
      4    1      5     6.46e-07   2.5009*  

     Davidson procedure converged

 EOMEE transition 1/B2
 Total energy = -74.78053571 a.u.  Excitation energy = 2.50086077 eV.
 R0^2 = 0.0000  R1^2 = 0.8389  R2^2 = 0.1611  Res^2 = 6.46e-07
 Conv-d = yes

 Amplitude    Transitions between orbitals
 -0.6476652574       1 (B2) A                  ->    4 (A1) A                   
  0.6476652574       1 (B2) B                  ->    4 (A1) B                   
  0.1931822783       1 (B1) A      1 (B2) B    ->    2 (B1) A      4 (A1) B     
 -0.1931822783       1 (B1) A      1 (B2) B    ->    4 (A1) B      2 (B1) A     
 -0.1931822783       1 (B2) A      1 (B1) B    ->    4 (A1) A      2 (B1) B     
  0.1931822783       1 (B2) A      1 (B1) B    ->    2 (B1) B      4 (A1) A     
  0.1931822783       1 (B1) B      1 (B2) A    ->    4 (A1) A      2 (B1) B     
 -0.1931822783       1 (B1) B      1 (B2) A    ->    2 (B1) B      4 (A1) A     
 -0.1931822783       1 (B2) B      1 (B1) A    ->    2 (B1) A      4 (A1) B     
  0.1931822783       1 (B2) B      1 (B1) A    ->    4 (A1) B      2 (B1) A     
  0.1468645208       3 (A1) A      1 (B2) B    ->    4 (A1) A      4 (A1) B     
 -0.1468645208       3 (A1) A      1 (B2) B    ->    4 (A1) B      4 (A1) A     
 -0.1468645208       1 (B2) A      3 (A1) B    ->    4 (A1) A      4 (A1) B     
  0.1468645208       1 (B2) A      3 (A1) B    ->    4 (A1) B      4 (A1) A     
  0.1468645208       3 (A1) B      1 (B2) A    ->    4 (A1) A      4 (A1) B     
 -0.1468645208       3 (A1) B      1 (B2) A    ->    4 (A1) B      4 (A1) A     
 -0.1468645208       1 (B2) B      3 (A1) A    ->    4 (A1) A      4 (A1) B     
  0.1468645208       1 (B2) B      3 (A1) A    ->    4 (A1) B      4 (A1) A     
  0.1243077224       3 (A1) A      1 (B2) B    ->    2 (B1) A      2 (B1) B     
 -0.1243077224       3 (A1) A      1 (B2) B    ->    2 (B1) B      2 (B1) A     
 -0.1243077224       1 (B2) A      3 (A1) B    ->    2 (B1) A      2 (B1) B     
  0.1243077224       1 (B2) A      3 (A1) B    ->    2 (B1) B      2 (B1) A     
  0.1243077224       3 (A1) B      1 (B2) A    ->    2 (B1) A      2 (B1) B     
 -0.1243077224       3 (A1) B      1 (B2) A    ->    2 (B1) B      2 (B1) A     
 -0.1243077224       1 (B2) B      3 (A1) A    ->    2 (B1) A      2 (B1) B     
  0.1243077224       1 (B2) B      3 (A1) A    ->    2 (B1) B      2 (B1) A     
  0.0779807464       1 (B1) A      1 (B2) B    ->    4 (A1) A      2 (B1) B     
 -0.0779807464       1 (B1) A      1 (B2) B    ->    2 (B1) B      4 (A1) A     
 -0.0779807464       1 (B2) A      1 (B1) B    ->    2 (B1) A      4 (A1) B     
  0.0779807464       1 (B2) A      1 (B1) B    ->    4 (A1) B      2 (B1) A     
  0.0779807464       1 (B1) B      1 (B2) A    ->    2 (B1) A      4 (A1) B     
 -0.0779807464       1 (B1) B      1 (B2) A    ->    4 (A1) B      2 (B1) A     
 -0.0779807464       1 (B2) B      1 (B1) A    ->    4 (A1) A      2 (B1) B     
  0.0779807464       1 (B2) B      1 (B1) A    ->    2 (B1) B      4 (A1) A     
 -0.0086870178       1 (B1) A      1 (B2) A    ->    4 (A1) A      2 (B1) A     
  0.0086870178       1 (B1) A      1 (B2) A    ->    2 (B1) A      4 (A1) A     
  0.0086870178       1 (B2) A      1 (B1) A    ->    4 (A1) A      2 (B1) A     
 -0.0086870178       1 (B2) A      1 (B1) A    ->    2 (B1) A      4 (A1) A     
  0.0086870178       1 (B1) B      1 (B2) B    ->    4 (A1) B      2 (B1) B     
 -0.0086870178       1 (B1) B      1 (B2) B    ->    2 (B1) B      4 (A1) B     
 -0.0086870178       1 (B2) B      1 (B1) B    ->    4 (A1) B      2 (B1) B     
  0.0086870178       1 (B2) B      1 (B1) B    ->    2 (B1) B      4 (A1) B     
 -0.0055870900       2 (A1) A      1 (B2) B    ->    2 (B1) A      2 (B1) B     
  0.0055870900       2 (A1) A      1 (B2) B    ->    2 (B1) B      2 (B1) A     
  0.0055870900       1 (B2) A      2 (A1) B    ->    2 (B1) A      2 (B1) B     
 -0.0055870900       1 (B2) A      2 (A1) B    ->    2 (B1) B      2 (B1) A     
 -0.0055870900       2 (A1) B      1 (B2) A    ->    2 (B1) A      2 (B1) B     
  0.0055870900       2 (A1) B      1 (B2) A    ->    2 (B1) B      2 (B1) A     
  0.0055870900       1 (B2) B      2 (A1) A    ->    2 (B1) A      2 (B1) B     
 -0.0055870900       1 (B2) B      2 (A1) A    ->    2 (B1) B      2 (B1) A     
 -0.0010235738       2 (A1) A      1 (B2) B    ->    4 (A1) A      4 (A1) B     
  0.0010235738       2 (A1) A      1 (B2) B    ->    4 (A1) B      4 (A1) A     
  0.0010235738       1 (B2) A      2 (A1) B    ->    4 (A1) A      4 (A1) B     
 -0.0010235738       1 (B2) A      2 (A1) B    ->    4 (A1) B      4 (A1) A     
 -0.0010235738       2 (A1) B      1 (B2) A    ->    4 (A1) A      4 (A1) B     
  0.0010235738       2 (A1) B      1 (B2) A    ->    4 (A1) B      4 (A1) A     
  0.0010235738       1 (B2) B      2 (A1) A    ->    4 (A1) A      4 (A1) B     
 -0.0010235738       1 (B2) B      2 (A1) A    ->    4 (A1) B      4 (A1) A     

              Summary of significant orbitals:

               Number  Type             Irrep      Energy
               2       Occ  Alpha       2 (A1)     -1.1429
               5       Occ  Alpha       3 (A1)     -0.3706
               3       Occ  Alpha       1 (B1)     -0.4063
               4       Occ  Alpha       1 (B2)     -0.3998
               2       Occ  Beta        2 (A1)     -1.1429
               5       Occ  Beta        3 (A1)     -0.3706
               3       Occ  Beta        1 (B1)     -0.4063
               4       Occ  Beta        1 (B2)     -0.3998
               6       Vir  Alpha       4 (A1)      0.2429
               7       Vir  Alpha       2 (B1)      0.3072
               6       Vir  Beta        4 (A1)      0.2429
               7       Vir  Beta        2 (B1)      0.3072


 EEs and amplitudes of EOMEE has be exported to fchk file
Running a double precision version
      EOM-CCSD/MP2 left amplitudes will be solved using Davidson.
        Amplitudes will be solved using MOM  algorithm.
     Hard-coded thresholds: 
     LinDepThresh=1.00e-15  NormThresh=1.00e-06  ReorthogonThresh=1.00e-02

      Roots     MaxVec    MaxIter   Precond   Conv      Shift    
      1         120       60        1         1.00e-05  0.00e+00  
 ------------------------------------------------------------------------------
      Iter ConvRoots NVecs ResNorm Current eigenvalues (eV)
 ------------------------------------------------------------------------------
      0    0      1     2.08e-03   2.5009   
      1    0      2     9.97e-05   2.5014   
      2    1      3     7.95e-06   2.5013*  

     Davidson procedure converged

 Excited state properties for  EOMEE-CCSD transition 1/B2
 Dipole moment (a.u.): 0.008084 (X 0.000000, Y 0.000000, Z -0.008084)
 R-squared (a.u.): 28.099486 (XX 14.446207, YY 4.189804, ZZ 9.463475)
 Gauge origin (a.u.): (0.000000, 0.000000, 0.000000)
 Angular momentum (a.u.) against gauge origin: 
 (X 0.000000i, Y 0.000000i, Z 0.000000i)
 Traces of the OPDMs: Tr(AA) 5.000000, Tr(BB) 5.000000

 EOMEE-CCSD calculation:   CPU 15.54 s  wall 4.42 s

 Total ccman2 time:   CPU 22.28 s  wall 6.22 s


 --------------------------------------------------------------
             Orbital Energies (a.u.) and Symmetries
 --------------------------------------------------------------

 Alpha MOs, Restricted
 -- Occupied --                  
-20.309  -1.143  -0.406  -0.400  -0.371
  1 A1    2 A1    1 B1    1 B2    3 A1                                         
 -- Virtual --                   
  0.243   0.307
  4 A1    2 B1                                                                 

 Beta MOs, Restricted
 -- Occupied --                  
-20.309  -1.143  -0.406  -0.400  -0.371
  1 A1    2 A1    1 B1    1 B2    3 A1                                         
 -- Virtual --                   
  0.243   0.307
  4 A1    2 B1                                                                 
 --------------------------------------------------------------

          Ground-State Mulliken Net Atomic Charges

     Atom                 Charge (a.u.)
  ----------------------------------------
      1 O                    -0.037184
      2 H                     0.018592
      3 H                     0.018592
  ----------------------------------------
  Sum of atomic charges =     0.000000

 -----------------------------------------------------------------
                    Cartesian Multipole Moments
 -----------------------------------------------------------------
    Charge (ESU x 10^10)
                 0.0000
    Dipole Moment (Debye)
         X       0.0000      Y      -0.0000      Z      -0.5897
       Tot       0.5897
    Quadrupole Moments (Debye-Ang)
        XX      -4.8923     XY      -0.0000     YY      -6.3943
        XZ      -0.0000     YZ      -0.0000     ZZ      -5.4759
    Octopole Moments (Debye-Ang^2)
       XXX       0.0000    XXY      -0.0000    XYY       0.0000
       YYY      -0.0000    XXZ      -0.2805    XYZ      -0.0000
       YYZ       0.3523    XZZ       0.0000    YZZ      -0.0000
       ZZZ       1.0939
    Hexadecapole Moments (Debye-Ang^3)
      XXXX     -15.2461   XXXY      -0.0000   XXYY      -3.4305
      XYYY      -0.0000   YYYY      -3.6127   XXXZ      -0.0000
      XXYZ      -0.0000   XYYZ      -0.0000   YYYZ      -0.0000
      XXZZ      -3.6637   XYZZ      -0.0000   YYZZ      -2.1711
      XZZZ      -0.0000   YZZZ      -0.0000   ZZZZ      -8.9796
 -----------------------------------------------------------------
 Total job time:  9.22s(wall), 24.35s(cpu) 
 Mon Sep  5 11:54:28 2022

        *************************************************************
        *                                                           *
        *  Thank you very much for using Q-Chem.  Have a nice day.  *
        *                                                           *
        *************************************************************


