Jobname.Temp
SP        R                             STO-3G              
Number of atoms                            I                3
Charge                                     I                0
Multiplicity                               I                1
Number of electrons                        I               10
Number of alpha electrons                  I                5
Number of beta electrons                   I                5
Atomic numbers                             I   N=           3
           8           1           1
Current cartesian coordinates              R   N=           9
 -6.76358759E-17  3.36079923E-17  3.47076896E-01 -2.24128012E+00 -2.40869660E-16
 -1.38830759E+00  2.24128012E+00 -2.79942788E-17 -1.38830759E+00
Nuclear charges                            R   N=           3
  8.00000000E+00  1.00000000E+00  1.00000000E+00
Number of basis functions                  I                7
Number of contracted shells                I                4
Number of primitive shells                 I               12
Highest angular momentum                   I                1
Largest degree of contraction              I                3
Shell types                                I   N=           4
           0          -1           0           0
Number of primitives per shell             I   N=           4
           3           3           3           3
Shell to atom map                          I   N=           4
           1           1           2           3
Primitive exponents                        R   N=          12
  1.30709320E+02  2.38088610E+01  6.44360830E+00  5.03315130E+00  1.16959610E+00
  3.80389000E-01  3.42525091E+00  6.23913730E-01  1.68855400E-01  3.42525091E+00
  6.23913730E-01  1.68855400E-01
Contraction coefficients                   R   N=          12
  1.54328969E-01  5.35328136E-01  4.44634536E-01 -9.99672287E-02  3.99512825E-01
  7.00115461E-01  1.54328971E-01  5.35328142E-01  4.44634542E-01  1.54328971E-01
  5.35328142E-01  4.44634542E-01
P(S=P) Contraction coefficients            R   N=          12
  0.00000000E+00  0.00000000E+00  0.00000000E+00  1.55916268E-01  6.07683714E-01
  3.91957386E-01  0.00000000E+00  0.00000000E+00  0.00000000E+00  0.00000000E+00
  0.00000000E+00  0.00000000E+00
Coordinates of each shell                  R   N=          12
 -6.76358759E-17  3.36079923E-17  3.47076896E-01 -6.76358759E-17  3.36079923E-17
  3.47076896E-01 -2.24128012E+00 -2.40869660E-16 -1.38830759E+00  2.24128012E+00
 -2.79942788E-17 -1.38830759E+00
Overlap Matrix                             R   N=          28
  1.00000000E+00  2.36703937E-01  1.00000000E+00  3.48143497E-33 -1.09576590E-32
  1.00000000E+00 -3.84980621E-33  5.47882949E-33 -7.70905059E-65  1.00000000E+00
 -1.93881084E-17  1.02842877E-16 -1.38873909E-48  6.94369547E-49  1.00000000E+00
  1.53777541E-02  1.98836243E-01 -1.56146175E-01 -1.91223913E-17 -1.20901286E-01
  1.00000000E+00  1.53777541E-02  1.98836243E-01  1.56146175E-01 -4.29172548E-18
 -1.20901286E-01  6.27037732E-02  1.00000000E+00
Core Hamiltonian Matrix                    R   N=          28
 -3.23208246E+01 -7.51810149E+00 -8.94919711E+00  0.00000000E+00  0.00000000E+00
 -7.17861153E+00  0.00000000E+00  0.00000000E+00  0.00000000E+00 -7.13021254E+00
  7.74016179E-03  9.74819500E-02  0.00000000E+00  0.00000000E+00 -7.15922840E+00
 -4.92855073E-01 -1.35910820E+00  8.77768825E-01 -3.48416847E-18  6.94149723E-01
 -3.50051097E+00 -4.92855073E-01 -1.35910820E+00 -8.77768825E-01 -7.81967817E-19
  6.94149723E-01 -3.10198465E-01 -3.50051097E+00
Orbital Coefficients CCMAN2 Alpha          R   N=          49
  9.94899695E-01  2.10137965E-02  2.69070041E-16 -2.86926177E-16 -1.29749545E-03
 -2.25107724E-03 -2.25107724E-03 -2.54417443E-01  9.82884704E-01  2.61082315E-16
  3.71919681E-16 -1.75963256E-02  9.03044149E-02  9.03044149E-02  5.69210793E-02
 -2.81275094E-01  1.92817199E-14  9.54752781E-15 -7.07553414E-01  4.19183412E-01
  4.19183412E-01  1.17406034E-15 -6.83870191E-15 -6.34153005E-01 -9.40932166E-15
 -2.16598788E-14  4.68884021E-01 -4.68884021E-01 -3.40087717E-16  2.40053731E-15
 -5.88051851E-15  1.00000000E+00  7.36011608E-15  3.96271982E-16 -8.36494612E-15
  6.26680207E-02 -3.21774141E-01 -6.91061516E-15  1.75142351E-16  7.27843643E-01
  5.84111501E-01  5.84111501E-01 -2.47198095E-16  1.45716772E-15 -8.07917448E-01
 -6.77442800E-17 -6.65092981E-15 -5.85553665E-01  5.85553665E-01
Orbital Coefficients CCMAN2 Beta           R   N=          49
 -2.54417443E-01  9.82884704E-01  2.61082315E-16  3.71919681E-16 -1.75963256E-02
  9.03044149E-02  9.03044149E-02  5.69210793E-02 -2.81275094E-01  1.92817199E-14
  9.54752781E-15 -7.07553414E-01  4.19183412E-01  4.19183412E-01  1.17406034E-15
 -6.83870191E-15 -6.34153005E-01 -9.40932166E-15 -2.16598788E-14  4.68884021E-01
 -4.68884021E-01 -3.40087717E-16  2.40053731E-15 -5.88051851E-15  1.00000000E+00
  7.36011608E-15  3.96271982E-16 -8.36494612E-15  6.26680207E-02 -3.21774141E-01
 -6.91061516E-15  1.75142351E-16  7.27843643E-01  5.84111501E-01  5.84111501E-01
 -2.47198095E-16  1.45716772E-15 -8.07917448E-01 -6.77442800E-17 -6.65092981E-15
 -5.85553665E-01  5.85553665E-01  9.94899695E-01  2.10137965E-02  2.69070041E-16
 -2.86926177E-16 -1.29749545E-03 -2.25107724E-03 -2.25107724E-03
EOMEE transition A1 Excitation Energies    R   N=           1
  3.22773072E-01
Number of Active Occ                       I               10
Number of Active Vir                       I                4
Alpha Amplitudes                           R   N=           4
  4.64990303E-01  3.02694970E-01  4.64990303E-01  3.02694970E-01
Alpha J Indexes                            I   N=           2
           0           4
Alpha I Indexes                            I   N=           4
           8          13          30          35
EOMEE transition A2 Excitation Energies    R   N=           1
  1.49545081E-01
Number of Active Occ                       I               10
Number of Active Vir                       I                4
Alpha Amplitudes                           R   N=           2
 -6.22823752E-01 -6.22823752E-01
Alpha J Indexes                            I   N=           2
           0           2
Alpha I Indexes                            I   N=           2
          17          39
EOMEE transition B1 Excitation Energies    R   N=           1
  3.10821953E-01
Number of Active Occ                       I               10
Number of Active Vir                       I                4
Alpha Amplitudes                           R   N=           4
 -4.55455616E-01 -4.18190068E-01 -4.55455616E-01 -4.18190068E-01
Alpha J Indexes                            I   N=           2
           0           4
Alpha I Indexes                            I   N=           4
           9          12          31          34
EOMEE transition B2 Excitation Energies    R   N=           1
  1.09333643E-01
Number of Active Occ                       I               10
Number of Active Vir                       I                4
Alpha Amplitudes                           R   N=           2
 -6.23262538E-01 -6.23262538E-01
Alpha J Indexes                            I   N=           2
           0           2
Alpha I Indexes                            I   N=           2
          16          38
EOMEE transition A1 Excitation Energies    R   N=           1
  1.21291837E-01
Number of Active Occ                       I               10
Number of Active Vir                       I                4
Alpha Amplitudes                           R   N=           4
 -5.91187873E-01  3.82359706E-01  5.91187873E-01 -3.82359706E-01
Alpha J Indexes                            I   N=           2
           0           4
Alpha I Indexes                            I   N=           4
           8          13          30          35
EOMEE transition A2 Excitation Energies    R   N=           1
  1.32568072E-01
Number of Active Occ                       I               10
Number of Active Vir                       I                4
Alpha Amplitudes                           R   N=           2
  6.39376823E-01 -6.39376823E-01
Alpha J Indexes                            I   N=           2
           0           2
Alpha I Indexes                            I   N=           2
          17          39
EOMEE transition B1 Excitation Energies    R   N=           1
  1.72128080E-01
Number of Active Occ                       I               10
Number of Active Vir                       I                4
Alpha Amplitudes                           R   N=           4
 -4.83108215E-01  4.80765415E-01  4.83108215E-01 -4.80765415E-01
Alpha J Indexes                            I   N=           2
           0           4
Alpha I Indexes                            I   N=           4
           9          12          31          34
EOMEE transition B2 Excitation Energies    R   N=           1
  9.19250234E-02
Number of Active Occ                       I               10
Number of Active Vir                       I                4
Alpha Amplitudes                           R   N=           2
  6.47658059E-01 -6.47658059E-01
Alpha J Indexes                            I   N=           2
           0           2
Alpha I Indexes                            I   N=           2
          16          38
Number of independent functions            I                7
Alpha MO coefficients                      R   N=          49
  9.94899695E-01  2.10137965E-02  2.69070041E-16 -2.86926177E-16 -1.29749545E-03
 -2.25107724E-03 -2.25107724E-03 -2.54417443E-01  9.82884704E-01  2.61082315E-16
  3.71919681E-16 -1.75963256E-02  9.03044149E-02  9.03044149E-02  1.17406034E-15
 -6.83870191E-15 -6.34153005E-01 -9.40932166E-15 -2.16598788E-14  4.68884021E-01
 -4.68884021E-01 -3.40087717E-16  2.40053731E-15 -5.88051851E-15  1.00000000E+00
  7.36011608E-15  3.96271982E-16 -8.36494612E-15  5.69210793E-02 -2.81275094E-01
  1.92817199E-14  9.54752781E-15 -7.07553414E-01  4.19183412E-01  4.19183412E-01
  6.26680207E-02 -3.21774141E-01 -6.91061516E-15  1.75142351E-16  7.27843643E-01
  5.84111501E-01  5.84111501E-01 -2.47198095E-16  1.45716772E-15 -8.07917448E-01
 -6.77442800E-17 -6.65092981E-15 -5.85553665E-01  5.85553665E-01
Alpha Orbital Energies                     R   N=           7
 -2.03089826E+01 -1.14289596E+00 -4.06291789E-01 -3.99826773E-01 -3.70631351E-01
  2.42903093E-01  3.07158821E-01
Total SCF Density                          R   N=          28
  2.11771736E+00 -5.00519954E-01  2.13929671E+00  1.06906560E-15 -1.53324994E-15
  8.68884005E-01 -3.59787335E-16  2.41196756E-16 -7.94326167E-16  1.99870130E+00
 -5.43278551E-02  2.66476524E-01  1.91198509E-15  3.04694753E-15  9.48803838E-01
  1.19061001E-02 -1.23305847E-01 -4.50601459E-01  4.55382409E-16 -4.49198611E-01
  8.82693854E-01  1.19061001E-02 -1.23305847E-01  4.50601459E-01 -1.24861981E-15
 -4.49198611E-01 -2.53257904E-02  8.82693854E-01
Pure Switching                             I                1
Dipole_Data                                R   N=           3
 -7.06525355E-15 -1.95597057E-16 -5.89534051E-01
Quadrupole_Data                            R   N=           6
 -4.89269092E+00  1.08048448E-15 -6.39431578E+00  7.41137792E-15 -2.58349479E-15
 -5.47611966E+00
Octapole_Data                              R   N=          10
 -2.02799212E-14  5.67834918E-17 -1.78388008E-15  1.24007182E-16 -2.80210845E-01
  8.42263843E-18  3.52354043E-01 -7.53906752E-15 -8.86075896E-16  1.09412484E+00
Hexadecapole_Data                          R   N=          15
 -1.52470697E+01  3.05603260E-16 -3.43056525E+00  1.20420487E-16 -3.61275174E+00
  1.25183559E-14 -3.44943355E-16  1.18711157E-15 -1.19313616E-15 -3.66395172E+00
  1.17010046E-16 -2.17117029E+00  8.32833920E-15 -1.41385279E-15 -8.97982957E+00
