Jobname.Temp
FOPT      R                             STO-3G              
Number of atoms                            I                3
Charge                                     I                0
Multiplicity                               I                1
Number of electrons                        I               10
Number of alpha electrons                  I                5
Number of beta electrons                   I                5
Atomic numbers                             I   N=           3
           1           8           1
Current cartesian coordinates              R   N=           9
  1.47983867E+00 -9.16332629E-01 -5.51387794E-16 -3.62951360E-05  2.29111256E-01
  6.43047950E-17 -1.47954831E+00 -9.16557422E-01  1.29175768E-17
Nuclear charges                            R   N=           3
  1.00000000E+00  8.00000000E+00  1.00000000E+00
Number of basis functions                  I                7
Number of contracted shells                I                4
Number of primitive shells                 I               12
Highest angular momentum                   I                1
Largest degree of contraction              I                3
Shell types                                I   N=           4
           0           0          -1           0
Number of primitives per shell             I   N=           4
           3           3           3           3
Shell to atom map                          I   N=           4
           1           2           2           3
Primitive exponents                        R   N=          12
  3.42525091E+00  6.23913730E-01  1.68855400E-01  1.30709320E+02  2.38088610E+01
  6.44360830E+00  5.03315130E+00  1.16959610E+00  3.80389000E-01  3.42525091E+00
  6.23913730E-01  1.68855400E-01
Contraction coefficients                   R   N=          12
  1.54328971E-01  5.35328142E-01  4.44634542E-01  1.54328969E-01  5.35328136E-01
  4.44634536E-01 -9.99672287E-02  3.99512825E-01  7.00115461E-01  1.54328971E-01
  5.35328142E-01  4.44634542E-01
P(S=P) Contraction coefficients            R   N=          12
  0.00000000E+00  0.00000000E+00  0.00000000E+00  0.00000000E+00  0.00000000E+00
  0.00000000E+00  1.55916268E-01  6.07683714E-01  3.91957386E-01  0.00000000E+00
  0.00000000E+00  0.00000000E+00
Coordinates of each shell                  R   N=          12
  1.47983867E+00 -9.16332629E-01 -5.51387794E-16 -3.62951360E-05  2.29111256E-01
  6.43047950E-17 -3.62951360E-05  2.29111256E-01  6.43047950E-17 -1.47954831E+00
 -9.16557422E-01  1.29175768E-17
Overlap Matrix                             R   N=          28
  1.00000000E+00  4.98927228E-02  1.00000000E+00  4.53343482E-01  2.36703937E-01
  1.00000000E+00  3.01862146E-01  0.00000000E+00  0.00000000E+00  1.00000000E+00
 -2.33645515E-01 -2.31171306E-18  4.68117047E-17  0.00000000E+00  1.00000000E+00
 -1.25587830E-16 -7.23953796E-33  0.00000000E+00  0.00000000E+00  0.00000000E+00
  1.00000000E+00  2.33413667E-01  4.99021190E-02  4.53394133E-01 -3.01834750E-01
 -2.33727483E-01 -1.04834892E-17  1.00000000E+00
Core Hamiltonian Matrix                    R   N=          28
 -4.94189473E+00 -1.61556327E+00 -3.26840264E+01 -3.53279522E+00 -7.60407278E+00
 -9.30109046E+00 -1.94890980E+00 -6.65447357E-08 -4.21076749E-06 -7.57477052E+00
  1.57459799E+00  1.77584730E-02  2.11268997E-01 -1.64856416E-05 -7.51678501E+00
  8.30079469E-16  5.17002910E-18  6.15074529E-17  2.75965514E-17 -2.52516146E-17
 -7.43003752E+00 -1.46306409E+00 -1.61586705E+00 -3.53325857E+00  1.94876401E+00
  1.57516460E+00  8.69373269E-17 -4.94218272E+00
Orbital Coefficients CCMAN2 Alpha          R   N=          49
  5.61355773E-03 -9.94207180E-01 -2.58919722E-02  9.32761751E-08  4.03421528E-03
 -1.18870806E-16  5.61455046E-03 -1.56147794E-01  2.34131997E-01 -8.45730447E-01
  7.69608616E-06  1.18380029E-01 -7.18019670E-16 -1.56177538E-01 -4.47108006E-01
  1.33030783E-05 -7.20109186E-05 -6.05500840E-01 -1.06993206E-04  2.01121301E-16
  4.47115761E-01 -2.90800090E-01 -1.01333686E-01  5.25480674E-01 -1.11766565E-04
  7.69596810E-01  1.36998388E-14 -2.90742014E-01 -2.80669375E-15 -1.38030056E-15
  6.75329407E-15 -5.53053459E-16  1.01621003E-14 -1.00000000E+00 -3.81280118E-15
 -7.74253908E-01 -1.27666814E-01  8.28872902E-01  3.67790728E-04 -7.40516190E-01
  3.68984967E-16 -7.73809551E-01  8.09500344E-01 -4.53193166E-05  3.23833566E-04
 -9.72216381E-01 -3.47221595E-04  2.93919435E-16 -8.10037694E-01
Orbital Coefficients CCMAN2 Beta           R   N=          49
 -1.56147794E-01  2.34131997E-01 -8.45730447E-01  7.69608616E-06  1.18380029E-01
 -7.18019670E-16 -1.56177538E-01 -4.47108006E-01  1.33030783E-05 -7.20109186E-05
 -6.05500840E-01 -1.06993206E-04  2.01121301E-16  4.47115761E-01 -2.90800090E-01
 -1.01333686E-01  5.25480674E-01 -1.11766565E-04  7.69596810E-01  1.36998388E-14
 -2.90742014E-01 -2.80669375E-15 -1.38030056E-15  6.75329407E-15 -5.53053459E-16
  1.01621003E-14 -1.00000000E+00 -3.81280118E-15 -7.74253908E-01 -1.27666814E-01
  8.28872902E-01  3.67790728E-04 -7.40516190E-01  3.68984967E-16 -7.73809551E-01
  8.09500344E-01 -4.53193166E-05  3.23833566E-04 -9.72216381E-01 -3.47221595E-04
  2.93919435E-16 -8.10037694E-01  5.61355773E-03 -9.94207180E-01 -2.58919722E-02
  9.32761751E-08  4.03421528E-03 -1.18870806E-16  5.61455046E-03
Dipole_Data                                R   N=           3
  9.88542438E-05 -1.55901498E+00 -6.42478556E-15
Quadrupole_Data                            R   N=           6
 -4.49796317E+00  6.82484517E-05 -5.45670173E+00 -1.42669155E-17 -1.49280462E-15
 -6.13717593E+00
Octapole_Data                              R   N=          10
  9.34503595E-05 -4.54356490E-01 -9.45952480E-05 -2.54621619E-02 -5.60061867E-16
 -7.82005811E-17 -8.46674251E-16 -3.31050742E-05  4.01787703E-02 -1.74031611E-15
Hexadecapole_Data                          R   N=          15
 -7.13808332E+00 -7.00670509E-05 -1.84999892E+00  8.46969547E-05 -5.17449090E+00
  6.23655025E-16 -2.21143631E-16  1.72300501E-16 -8.98185086E-16 -1.88530862E+00
  5.31015459E-06 -1.44562434E+00  6.88212166E-16 -9.12591876E-16 -3.28912178E+00
Current cartesian coordinates              R   N=           9
  1.58611346E+00 -1.00639690E+00  0.00000000E+00 -3.58274112E-05  4.09278406E-01
  0.00000000E+00 -1.58582356E+00 -1.00666030E+00  0.00000000E+00
Overlap Matrix                             R   N=          28
  1.00000000E+00  3.61857373E-02  1.00000000E+00  3.71708709E-01  2.36703937E-01
  1.00000000E+00  2.46978338E-01  2.08390448E-21 -6.02403673E-21  1.00000000E+00
 -2.20433939E-01 -7.74618269E-18  1.21370288E-16 -7.63467391E-37  1.00000000E+00
  0.00000000E+00  0.00000000E+00  0.00000000E+00  0.00000000E+00  0.00000000E+00
  1.00000000E+00  1.97591231E-01  3.61900236E-02  3.71737108E-01 -2.46947295E-01
 -2.20497501E-01  0.00000000E+00  1.00000000E+00
Core Hamiltonian Matrix                    R   N=          28
 -4.47349316E+00 -1.16783502E+00 -3.25559961E+01 -2.78264861E+00 -7.57376750E+00
 -9.18042904E+00 -1.53034218E+00 -7.95530827E-07 -1.05985727E-05 -7.42454737E+00
  1.41804845E+00  1.49674953E-02  1.83717987E-01 -6.72053179E-06 -7.40534140E+00
  0.00000000E+00  0.00000000E+00  0.00000000E+00  0.00000000E+00  0.00000000E+00
 -7.32997028E+00 -1.12890153E+00 -1.16797316E+00 -2.78289139E+00  1.53015983E+00
  1.41846209E+00  0.00000000E+00 -4.47364299E+00
Orbital Coefficients CCMAN2 Alpha          R   N=          49
  4.33187512E-03 -9.94494286E-01 -2.36901989E-02 -9.76145682E-08  3.10708885E-03
 -2.94953445E-16  4.33234176E-03 -1.39972949E-01  2.40096999E-01 -8.93681446E-01
  1.82184277E-07  8.31948718E-02  6.41601443E-16 -1.39988233E-01 -4.54958433E-01
  1.21070744E-05 -6.30832352E-05 -6.22794988E-01 -1.24472085E-04  8.56462334E-16
  4.55002942E-01 -3.43768526E-01 -9.46613719E-02  4.81508424E-01 -1.24596922E-04
  7.21440770E-01 -1.03285618E-14 -3.43688079E-01 -4.22356747E-15 -1.21117040E-15
  6.04091417E-15  7.78296204E-16  6.77716921E-15  1.00000000E+00 -4.25994653E-15
  6.88095947E-01  1.05297254E-01 -6.24493520E-01 -3.09112829E-04  7.69013427E-01
  7.83703408E-16  6.87738992E-01  7.26321768E-01 -3.12923526E-05  1.95503799E-04
 -8.89605419E-01 -3.01374534E-04  5.49646469E-17 -7.26709113E-01
Orbital Coefficients CCMAN2 Beta           R   N=          49
 -1.39972949E-01  2.40096999E-01 -8.93681446E-01  1.82184277E-07  8.31948718E-02
  6.41601443E-16 -1.39988233E-01 -4.54958433E-01  1.21070744E-05 -6.30832352E-05
 -6.22794988E-01 -1.24472085E-04  8.56462334E-16  4.55002942E-01 -3.43768526E-01
 -9.46613719E-02  4.81508424E-01 -1.24596922E-04  7.21440770E-01 -1.03285618E-14
 -3.43688079E-01 -4.22356747E-15 -1.21117040E-15  6.04091417E-15  7.78296204E-16
  6.77716921E-15  1.00000000E+00 -4.25994653E-15  6.88095947E-01  1.05297254E-01
 -6.24493520E-01 -3.09112829E-04  7.69013427E-01  7.83703408E-16  6.87738992E-01
  7.26321768E-01 -3.12923526E-05  1.95503799E-04 -8.89605419E-01 -3.01374534E-04
  5.49646469E-17 -7.26709113E-01  4.33187512E-03 -9.94494286E-01 -2.36901989E-02
 -9.76145682E-08  3.10708885E-03 -2.94953445E-16  4.33234176E-03
Dipole_Data                                R   N=           3
  8.24965900E-05 -1.32865914E+00  1.85057527E-15
Quadrupole_Data                            R   N=           6
 -4.75818591E+00  5.74572040E-05 -5.54428605E+00 -2.80453929E-17  1.26860961E-15
 -6.24329189E+00
Octapole_Data                              R   N=          10
  6.40562491E-05 -7.09244824E-01 -1.05045387E-04 -8.60439236E-01  6.30477201E-16
 -1.32008047E-16  1.04179994E-15 -3.49795731E-05 -2.75458438E-01  1.13301934E-15
Hexadecapole_Data                          R   N=          15
 -8.43262836E+00 -9.58322015E-05 -2.24713928E+00  7.57343474E-05 -6.56177619E+00
  1.24375070E-16  1.00504194E-16  1.22790122E-17  6.12076267E-16 -2.12250201E+00
 -3.08268378E-06 -1.72038047E+00  6.67549702E-17  4.13710716E-16 -3.41185247E+00
Current cartesian coordinates              R   N=           9
  1.70121136E+00 -1.10035004E+00  0.00000000E+00 -3.90403138E-05  5.97222357E-01
  0.00000000E+00 -1.70091825E+00 -1.10065111E+00  0.00000000E+00
Overlap Matrix                             R   N=          28
  1.00000000E+00  2.56621044E-02  1.00000000E+00  2.94420754E-01  2.36703937E-01
  1.00000000E+00  1.94882486E-01  2.77220409E-21 -6.02403673E-21  1.00000000E+00
 -1.94461162E-01 -7.71054146E-18  9.86978177E-17 -7.63467391E-37  1.00000000E+00
  0.00000000E+00  0.00000000E+00  0.00000000E+00  0.00000000E+00  0.00000000E+00
  1.00000000E+00  1.64007552E-01  2.56636702E-02  2.94433570E-01 -1.94850962E-01
 -1.94506626E-01  0.00000000E+00  1.00000000E+00
Core Hamiltonian Matrix                    R   N=          28
 -4.05412431E+00 -8.25762755E-01 -3.24474416E+01 -2.12137710E+00 -7.54807224E+00
 -9.07473208E+00 -1.15894258E+00 -9.69316651E-07 -1.22482847E-05 -7.30187393E+00
  1.19500333E+00  1.24240661E-02  1.55048499E-01 -1.76492115E-06 -7.30163179E+00
  0.00000000E+00  0.00000000E+00  0.00000000E+00  0.00000000E+00  0.00000000E+00
 -7.24018762E+00 -8.54300821E-01 -8.25813112E-01 -2.12147965E+00  1.15875492E+00
  1.19528169E+00  0.00000000E+00 -4.05418919E+00
Orbital Coefficients CCMAN2 Alpha          R   N=          49
  3.29303637E-03 -9.94714246E-01 -2.21890545E-02 -1.46820439E-07  2.26852196E-03
 -2.25114367E-16  3.29322433E-03 -1.19223152E-01  2.46753499E-01 -9.37875709E-01
 -2.07401906E-06  5.08222783E-02 -2.11040553E-15 -1.19229292E-01 -4.56068812E-01
  1.29347791E-05 -6.52043668E-05 -6.49129368E-01 -1.57104475E-04  4.23995800E-15
  4.56168151E-01 -3.88247232E-01 -8.20476975E-02  4.10491168E-01 -1.55179938E-04
  6.83933777E-01  3.60385319E-14 -3.88121768E-01 -1.74671590E-14 -3.32492649E-15
  1.71205622E-14 -1.90541794E-15  2.36962511E-14 -1.00000000E+00 -1.18432778E-14
 -6.19819168E-01 -8.39971353E-02  4.64358111E-01  2.48602797E-04 -7.82749001E-01
  1.40384157E-15 -6.19548739E-01  6.70545181E-01 -1.92633049E-05  1.09194827E-04
 -8.23743852E-01 -2.48248217E-04 -1.04819253E-15 -6.70813102E-01
Orbital Coefficients CCMAN2 Beta           R   N=          49
 -1.19223152E-01  2.46753499E-01 -9.37875709E-01 -2.07401906E-06  5.08222783E-02
 -2.11040553E-15 -1.19229292E-01 -4.56068812E-01  1.29347791E-05 -6.52043668E-05
 -6.49129368E-01 -1.57104475E-04  4.23995800E-15  4.56168151E-01 -3.88247232E-01
 -8.20476975E-02  4.10491168E-01 -1.55179938E-04  6.83933777E-01  3.60385319E-14
 -3.88121768E-01 -1.74671590E-14 -3.32492649E-15  1.71205622E-14 -1.90541794E-15
  2.36962511E-14 -1.00000000E+00 -1.18432778E-14 -6.19819168E-01 -8.39971353E-02
  4.64358111E-01  2.48602797E-04 -7.82749001E-01  1.40384157E-15 -6.19548739E-01
  6.70545181E-01 -1.92633049E-05  1.09194827E-04 -8.23743852E-01 -2.48248217E-04
 -1.04819253E-15 -6.70813102E-01  3.29303637E-03 -9.94714246E-01 -2.21890545E-02
 -1.46820439E-07  2.26852196E-03 -2.25114367E-16  3.29322433E-03
Dipole_Data                                R   N=           3
  7.55254657E-05 -1.05723241E+00 -1.04096518E-14
Quadrupole_Data                            R   N=           6
 -4.96936061E+00  4.23326427E-05 -5.57109547E+00  5.30517923E-16 -4.77975319E-15
 -6.32403172E+00
Octapole_Data                              R   N=          10
  6.88910820E-05 -9.77410945E-01 -1.05160104E-04 -1.68173771E+00 -1.55419193E-15
  4.44315775E-16 -3.53468355E-15 -2.85225047E-05 -6.08893681E-01 -4.03294358E-15
Hexadecapole_Data                          R   N=          15
 -9.83464205E+00 -1.24539894E-04 -2.76139706E+00  6.27525232E-05 -8.47769258E+00
 -1.01085809E-16 -5.27095152E-16  1.15220596E-16 -2.53579231E-15 -2.37299397E+00
 -1.02381569E-05 -2.09404438E+00  1.80607825E-17 -1.65230163E-15 -3.51127822E+00
Current cartesian coordinates              R   N=           9
  1.80374302E+00 -1.17668097E+00  0.00000000E+00 -3.68942636E-05  7.49921156E-01
  0.00000000E+00 -1.80345206E+00 -1.17701898E+00  0.00000000E+00
Overlap Matrix                             R   N=          28
  1.00000000E+00  1.93338178E-02  1.00000000E+00  2.38527463E-01  2.36703937E-01
  1.00000000E+00  1.57817424E-01  1.91393912E-21 -6.02403673E-21  1.00000000E+00
 -1.68563461E-01  1.57673557E-17  1.13771533E-17  0.00000000E+00  1.00000000E+00
  0.00000000E+00  0.00000000E+00  0.00000000E+00  0.00000000E+00  0.00000000E+00
  1.00000000E+00  1.38200463E-01  1.93338748E-02  2.38528007E-01 -1.57785966E-01
 -1.68593521E-01  0.00000000E+00  1.00000000E+00
Core Hamiltonian Matrix                    R   N=          28
 -3.75584627E+00 -6.20746044E-01 -3.23730585E+01 -1.67144436E+00 -7.53046546E+00
 -9.00117264E+00 -9.09625117E-01 -9.93659207E-07 -1.24845051E-05 -7.22058026E+00
  1.00054701E+00  1.06471826E-02  1.33742169E-01  5.26916416E-07 -7.22684500E+00
  0.00000000E+00  0.00000000E+00  0.00000000E+00  0.00000000E+00  0.00000000E+00
 -7.17622828E+00 -6.70502469E-01 -6.20747875E-01 -1.67144851E+00  9.09438595E-01
  1.00072057E+00  0.00000000E+00 -3.75584902E+00
Orbital Coefficients CCMAN2 Alpha          R   N=          49
  2.61689671E-03 -9.94839896E-01 -2.13926198E-02 -1.59121276E-07  1.71813930E-03
  1.17992711E-17  2.61690426E-03 -1.02075599E-01  2.51399263E-01 -9.65879717E-01
 -2.77330255E-06  3.04688054E-02  4.93562904E-16 -1.02075837E-01 -4.52740056E-01
  2.43765049E-06 -1.20889050E-05 -6.73873447E-01 -8.56328066E-05 -5.47318667E-14
  4.52768021E-01 -4.20116397E-01 -7.03632898E-02  3.48511119E-01 -8.47065833E-05
  6.58931460E-01 -7.48308938E-14 -4.20085906E-01 -5.87327419E-14 -5.59180920E-15
  2.72357653E-14 -3.50568665E-14  4.72363319E-14  1.00000000E+00 -6.92399943E-15
 -5.75694918E-01 -6.85740489E-02  3.63127090E-01  8.95348325E-05 -7.89808938E-01
 -2.80220404E-15 -5.75670394E-01 -6.40909683E-01  1.40780671E-06 -7.53349892E-06
  7.79248511E-01  8.88942533E-05 -2.00913349E-15  6.40932373E-01
Orbital Coefficients CCMAN2 Beta           R   N=          49
 -1.02075599E-01  2.51399263E-01 -9.65879717E-01 -2.77330255E-06  3.04688054E-02
  4.93562904E-16 -1.02075837E-01 -4.52740056E-01  2.43765049E-06 -1.20889050E-05
 -6.73873447E-01 -8.56328066E-05 -5.47318667E-14  4.52768021E-01 -4.20116397E-01
 -7.03632898E-02  3.48511119E-01 -8.47065833E-05  6.58931460E-01 -7.48308938E-14
 -4.20085906E-01 -5.87327419E-14 -5.59180920E-15  2.72357653E-14 -3.50568665E-14
  4.72363319E-14  1.00000000E+00 -6.92399943E-15 -5.75694918E-01 -6.85740489E-02
  3.63127090E-01  8.95348325E-05 -7.89808938E-01 -2.80220404E-15 -5.75670394E-01
 -6.40909683E-01  1.40780671E-06 -7.53349892E-06  7.79248511E-01  8.88942533E-05
 -2.00913349E-15  6.40932373E-01  2.61689671E-03 -9.94839896E-01 -2.13926198E-02
 -1.59121276E-07  1.71813930E-03  1.17992711E-17  2.61690426E-03
Dipole_Data                                R   N=           3
  7.73972358E-05 -8.34886595E-01 -2.13796630E-16
Quadrupole_Data                            R   N=           6
 -5.10532185E+00  2.82399643E-05 -5.56534870E+00 -2.57791980E-15  2.68382936E-15
 -6.36850328E+00
Octapole_Data                              R   N=          10
  5.57513224E-05 -1.17647035E+00 -1.05081711E-04 -2.30387539E+00  6.83196414E-16
 -1.42520766E-15  2.91043545E-15 -3.16362242E-05 -8.82492281E-01  6.95850184E-16
Hexadecapole_Data                          R   N=          15
 -1.11068102E+01 -1.78481778E-04 -3.28138151E+00  1.43357361E-05 -1.03965791E+01
 -4.66405265E-16  2.67400938E-16 -7.44804552E-16  2.57273641E-15 -2.59224584E+00
 -2.63817001E-05 -2.46580548E+00 -6.34633494E-16  9.10944821E-16 -3.57141857E+00
Current cartesian coordinates              R   N=           9
  1.81396884E+00 -1.17640512E+00  0.00000000E+00 -3.59604791E-05  7.49372324E-01
  0.00000000E+00 -1.81367881E+00 -1.17674600E+00  0.00000000E+00
Overlap Matrix                             R   N=          28
  1.00000000E+00  1.91880927E-02  1.00000000E+00  2.37134970E-01  2.36703937E-01
  1.00000000E+00  1.57541892E-01  2.11378385E-21 -6.02403673E-21  1.00000000E+00
 -1.67249074E-01  1.96266236E-17  1.16611059E-16 -7.63467391E-37  1.00000000E+00
  0.00000000E+00  0.00000000E+00  0.00000000E+00  0.00000000E+00  0.00000000E+00
  1.00000000E+00  1.35822888E-01  1.91880928E-02  2.37134970E-01 -1.57510458E-01
 -1.67278679E-01  0.00000000E+00  1.00000000E+00
Core Hamiltonian Matrix                    R   N=          28
 -3.74727356E+00 -6.16030449E-01 -3.23712254E+01 -1.66032354E+00 -7.53003156E+00
 -8.99935212E+00 -9.07277679E-01 -9.92798561E-07 -1.24722724E-05 -7.21896322E+00
  9.91670578E-01  1.05655872E-02  1.32732732E-01  5.30933728E-07 -7.22461388E+00
  0.00000000E+00  0.00000000E+00  0.00000000E+00  0.00000000E+00  0.00000000E+00
 -7.17462836E+00 -6.58570172E-01 -6.16030450E-01 -1.66032354E+00  9.07091297E-01
  9.91841067E-01  0.00000000E+00 -3.74727356E+00
Orbital Coefficients CCMAN2 Alpha          R   N=          49
 -2.60390772E-03  9.94842344E-01  2.13773457E-02  1.60088620E-07 -1.70373891E-03
  5.65025488E-16 -2.60390773E-03 -1.01642197E-01  2.51514359E-01 -9.66538998E-01
 -2.81556046E-06  2.99631482E-02 -1.45729693E-15 -1.01642197E-01 -4.53123682E-01
 -1.05851472E-09  5.16434489E-09 -6.73031643E-01 -6.32304918E-05  4.17182299E-14
  4.53123669E-01 -4.20319779E-01 -6.99225931E-02  3.46288437E-01 -6.20021681E-05
  6.59957419E-01  1.79571327E-13 -4.20319793E-01  9.54274137E-14  1.29399052E-14
 -6.39004207E-14  2.75339259E-14 -1.16613256E-13  1.00000000E+00  5.73672232E-14
  5.75665534E-01  6.83391239E-02 -3.61491635E-01 -7.41004497E-05  7.88396313E-01
 -1.36145696E-15  5.75665503E-01 -6.39152716E-01  1.73136118E-09 -9.17273903E-09
  7.79715749E-01  7.32854381E-05  1.36734865E-16  6.39152744E-01
Orbital Coefficients CCMAN2 Beta           R   N=          49
 -1.01642197E-01  2.51514359E-01 -9.66538998E-01 -2.81556046E-06  2.99631482E-02
 -1.45729693E-15 -1.01642197E-01 -4.53123682E-01 -1.05851472E-09  5.16434489E-09
 -6.73031643E-01 -6.32304918E-05  4.17182299E-14  4.53123669E-01 -4.20319779E-01
 -6.99225931E-02  3.46288437E-01 -6.20021681E-05  6.59957419E-01  1.79571327E-13
 -4.20319793E-01  9.54274137E-14  1.29399052E-14 -6.39004207E-14  2.75339259E-14
 -1.16613256E-13  1.00000000E+00  5.73672232E-14  5.75665534E-01  6.83391239E-02
 -3.61491635E-01 -7.41004497E-05  7.88396313E-01 -1.36145696E-15  5.75665503E-01
 -6.39152716E-01  1.73136118E-09 -9.17273903E-09  7.79715749E-01  7.32854381E-05
  1.36734865E-16  6.39152744E-01 -2.60390772E-03  9.94842344E-01  2.13773457E-02
  1.60088620E-07 -1.70373891E-03  5.65025488E-16 -2.60390773E-03
Dipole_Data                                R   N=           3
  7.77974282E-05 -8.27924463E-01 -7.70369118E-15
Quadrupole_Data                            R   N=           6
 -5.10001211E+00  2.88449871E-05 -5.56764873E+00  2.94540816E-16 -5.02681469E-15
 -6.36952874E+00
Octapole_Data                              R   N=          10
  5.28681834E-05 -1.17712253E+00 -1.07216147E-04 -2.29355016E+00 -9.68426469E-16
  7.90985686E-17 -3.75116365E-15 -3.34337356E-05 -8.80111522E-01 -2.73144960E-15
Hexadecapole_Data                          R   N=          15
 -1.11945793E+01 -1.87155867E-04 -3.29601550E+00  5.86518987E-06 -1.03954883E+01
  1.35803424E-16 -5.63790409E-16  7.43646978E-17 -3.16254461E-15 -2.60977364E+00
 -2.96068353E-05 -2.46546061E+00  1.19845629E-16 -1.70532423E-15 -3.57289648E+00
Current cartesian coordinates              R   N=           9
  1.87474034E+00 -1.15732392E+00  0.00000000E+00 -3.23771810E-05  7.11221346E-01
  0.00000000E+00 -1.87445390E+00 -1.15767622E+00  0.00000000E+00
Overlap Matrix                             R   N=          28
  1.00000000E+00  1.91581117E-02  1.00000000E+00  2.36847845E-01  2.36703937E-01
  1.00000000E+00  1.62570412E-01 -5.11478756E-22 -6.02403673E-21  1.00000000E+00
 -1.62030401E-01 -8.17885193E-17  0.00000000E+00  0.00000000E+00  1.00000000E+00
  0.00000000E+00  0.00000000E+00  0.00000000E+00  0.00000000E+00  0.00000000E+00
  1.00000000E+00  1.22383909E-01  1.91581118E-02  2.36847847E-01 -1.62539959E-01
 -1.62060951E-01  0.00000000E+00  1.00000000E+00
Core Hamiltonian Matrix                    R   N=          28
 -3.73693714E+00 -6.15048567E-01 -3.23708475E+01 -1.65643347E+00 -7.52994212E+00
 -8.99897683E+00 -9.35769792E-01 -9.61841320E-07 -1.20836581E-05 -7.22153980E+00
  9.59017369E-01  1.02362834E-02  1.28598839E-01 -2.79346276E-08 -7.22124412E+00
  0.00000000E+00  0.00000000E+00  0.00000000E+00  0.00000000E+00  0.00000000E+00
 -7.17429844E+00 -5.99502637E-01 -6.15048571E-01 -1.65643348E+00  9.35589550E-01
  9.59193219E-01  0.00000000E+00 -3.73693715E+00
Orbital Coefficients CCMAN2 Alpha          R   N=          49
  2.62576470E-03 -9.94840167E-01 -2.13890276E-02 -1.58603441E-07  1.68794901E-03
  1.95469212E-16  2.62576472E-03  1.01675233E-01 -2.51572556E-01  9.66780475E-01
  2.77191118E-06 -2.95015337E-02  4.92119045E-16  1.01675234E-01  4.56826225E-01
 -2.26131448E-09  1.12431166E-08  6.61269974E-01  6.21573385E-05 -3.61793767E-14
 -4.56826250E-01  4.15850708E-01  6.88462547E-02 -3.41266025E-01  6.32388291E-05
 -6.72783379E-01 -6.63166807E-15  4.15850680E-01  1.86524964E-14  5.13197841E-16
 -2.58953874E-15  2.35806489E-14 -5.03437762E-15  1.00000000E+00 -1.36641776E-14
  5.83438540E-01  6.94291267E-02 -3.66930712E-01 -7.28989583E-05  7.75560348E-01
 -3.21543456E-16  5.83438505E-01 -6.30508575E-01  2.15822187E-09 -1.15925430E-08
  7.91706191E-01  7.44160242E-05  2.10310686E-16  6.30508609E-01
Orbital Coefficients CCMAN2 Beta           R   N=          49
  1.01675233E-01 -2.51572556E-01  9.66780475E-01  2.77191118E-06 -2.95015337E-02
  4.92119045E-16  1.01675234E-01  4.56826225E-01 -2.26131448E-09  1.12431166E-08
  6.61269974E-01  6.21573385E-05 -3.61793767E-14 -4.56826250E-01  4.15850708E-01
  6.88462547E-02 -3.41266025E-01  6.32388291E-05 -6.72783379E-01 -6.63166807E-15
  4.15850680E-01  1.86524964E-14  5.13197841E-16 -2.58953874E-15  2.35806489E-14
 -5.03437762E-15  1.00000000E+00 -1.36641776E-14  5.83438540E-01  6.94291267E-02
 -3.66930712E-01 -7.28989583E-05  7.75560348E-01 -3.21543456E-16  5.83438505E-01
 -6.30508575E-01  2.15822187E-09 -1.15925430E-08  7.91706191E-01  7.44160242E-05
  2.10310686E-16  6.30508609E-01  2.62576470E-03 -9.94840167E-01 -2.13890276E-02
 -1.58603441E-07  1.68794901E-03  1.95469212E-16  2.62576472E-03
Dipole_Data                                R   N=           3
  7.67565620E-05 -8.16885586E-01 -2.02290887E-15
Quadrupole_Data                            R   N=           6
 -5.02975876E+00  3.75581883E-05 -5.58796067E+00  7.46606596E-16 -5.44326366E-16
 -6.37038638E+00
Octapole_Data                              R   N=          10
  4.64982724E-05 -1.14088730E+00 -1.21585268E-04 -2.07209551E+00 -2.02210056E-16
  1.20330047E-16 -3.25626299E-16 -4.10074981E-05 -7.99651568E-01 -7.00440607E-16
Hexadecapole_Data                          R   N=          15
 -1.16260723E+01 -2.25562848E-04 -3.29653524E+00 -3.33350879E-05 -9.93680379E+00
  4.18260497E-16 -7.24367047E-17  1.73632587E-16 -2.04147421E-16 -2.70618423E+00
 -4.55944650E-05 -2.37608336E+00  3.43462614E-16 -2.09218908E-16 -3.57420935E+00
Current cartesian coordinates              R   N=           9
  1.89836405E+00 -1.14880243E+00  0.00000000E+00 -3.07738893E-05  6.94182799E-01
  0.00000000E+00 -1.89807921E+00 -1.14915916E+00  0.00000000E+00
Overlap Matrix                             R   N=          28
  1.00000000E+00  1.91826702E-02  1.00000000E+00  2.37083055E-01  2.36703937E-01
  1.00000000E+00  1.64825358E-01  0.00000000E+00 -6.71844306E-21  1.00000000E+00
 -1.60014501E-01  4.81350873E-18  1.36278332E-16 -7.63467391E-37  1.00000000E+00
  0.00000000E+00  0.00000000E+00  0.00000000E+00  0.00000000E+00  0.00000000E+00
  1.00000000E+00  1.17468107E-01  1.91826702E-02  2.37083055E-01 -1.64795283E-01
 -1.60045474E-01  0.00000000E+00  1.00000000E+00
Core Hamiltonian Matrix                    R   N=          28
 -3.73481809E+00 -6.15838024E-01 -3.23711570E+01 -1.65762847E+00 -7.53001538E+00
 -8.99928426E+00 -9.48748272E-01 -9.49871114E-07 -1.19330356E-05 -7.22310420E+00
  9.46634253E-01  1.01086984E-02  1.26993504E-01 -2.60718938E-07 -7.22032949E+00
  0.00000000E+00  0.00000000E+00  0.00000000E+00  0.00000000E+00  0.00000000E+00
 -7.17456871E+00 -5.78213734E-01 -6.15838023E-01 -1.65762847E+00  9.48570352E-01
  9.46812536E-01  0.00000000E+00 -3.73481809E+00
Orbital Coefficients CCMAN2 Alpha          R   N=          49
 -2.63796053E-03  9.94838501E-01  2.13982746E-02  1.58230360E-07 -1.68391410E-03
  1.15531075E-16 -2.63796053E-03 -1.01819851E-01  2.51565571E-01 -9.66700420E-01
 -2.76517539E-06  2.94273815E-02  1.57198745E-15 -1.01819851E-01 -4.58108903E-01
 -1.10874875E-10  5.51657685E-10 -6.56697490E-01 -6.17059704E-05  6.07497710E-15
  4.58108902E-01 -4.14003904E-01 -6.85155167E-02  3.39770468E-01 -6.36889016E-05
  6.77799877E-01 -2.42670978E-13 -4.14003905E-01  9.96725256E-14  1.71988683E-14
 -8.48388531E-14 -4.03631464E-15 -1.62659736E-13 -1.00000000E+00  1.04397060E-13
 -5.86533129E-01 -6.99359162E-02  3.69561574E-01  7.23938333E-05 -7.70441471E-01
 -2.59739284E-15 -5.86533131E-01 -6.27574724E-01 -1.11456205E-10  6.00208480E-10
  7.96455750E-01  7.48382965E-05 -2.92433390E-16  6.27574722E-01
Orbital Coefficients CCMAN2 Beta           R   N=          49
 -1.01819851E-01  2.51565571E-01 -9.66700420E-01 -2.76517539E-06  2.94273815E-02
  1.57198745E-15 -1.01819851E-01 -4.58108903E-01 -1.10874875E-10  5.51657685E-10
 -6.56697490E-01 -6.17059704E-05  6.07497710E-15  4.58108902E-01 -4.14003904E-01
 -6.85155167E-02  3.39770468E-01 -6.36889016E-05  6.77799877E-01 -2.42670978E-13
 -4.14003905E-01  9.96725256E-14  1.71988683E-14 -8.48388531E-14 -4.03631464E-15
 -1.62659736E-13 -1.00000000E+00  1.04397060E-13 -5.86533129E-01 -6.99359162E-02
  3.69561574E-01  7.23938333E-05 -7.70441471E-01 -2.59739284E-15 -5.86533131E-01
 -6.27574724E-01 -1.11456205E-10  6.00208480E-10  7.96455750E-01  7.48382965E-05
 -2.92433390E-16  6.27574722E-01 -2.63796053E-03  9.94838501E-01  2.13982746E-02
  1.58230360E-07 -1.68391410E-03  1.15531075E-16 -2.63796053E-03
Dipole_Data                                R   N=           3
  7.64391148E-05 -8.13477958E-01  4.99576091E-15
Quadrupole_Data                            R   N=           6
 -5.00041443E+00  4.11240392E-05 -5.59591090E+00  4.25426322E-16 -1.18852383E-15
 -6.37044318E+00
Octapole_Data                              R   N=          10
  4.31429704E-05 -1.12332036E+00 -1.27632809E-04 -1.97417238E+00  1.12115226E-15
  4.72066446E-17 -4.46007203E-16 -4.43622155E-05 -7.64003196E-01  2.32484536E-15
Hexadecapole_Data                          R   N=          15
 -1.17907345E+01 -2.40682890E-04 -3.29441687E+00 -4.97987531E-05 -9.73635491E+00
  2.59685370E-16 -1.47491002E-16  9.59982113E-17 -1.11572421E-15 -2.74412460E+00
 -5.21682891E-05 -2.33718814E+00  2.06839555E-16 -3.50035315E-16 -3.57437126E+00
Number of independent functions            I                7
Alpha MO coefficients                      R   N=          49
 -2.63796053E-03  9.94838501E-01  2.13982746E-02  1.58230360E-07 -1.68391410E-03
  1.15531075E-16 -2.63796053E-03 -1.01819851E-01  2.51565571E-01 -9.66700420E-01
 -2.76517539E-06  2.94273815E-02  1.57198745E-15 -1.01819851E-01 -4.58108903E-01
 -1.10874875E-10  5.51657685E-10 -6.56697490E-01 -6.17059704E-05  6.07497710E-15
  4.58108902E-01 -4.14003904E-01 -6.85155167E-02  3.39770468E-01 -6.36889016E-05
  6.77799877E-01 -2.42670978E-13 -4.14003905E-01  9.96725256E-14  1.71988683E-14
 -8.48388531E-14 -4.03631464E-15 -1.62659736E-13 -1.00000000E+00  1.04397060E-13
 -5.86533129E-01 -6.99359162E-02  3.69561574E-01  7.23938333E-05 -7.70441471E-01
 -2.59739284E-15 -5.86533131E-01 -6.27574724E-01 -1.11456205E-10  6.00208480E-10
  7.96455750E-01  7.48382965E-05 -2.92433390E-16  6.27574722E-01
Alpha Orbital Energies                     R   N=           7
 -2.03087325E+01 -1.15583424E+00 -4.24017645E-01 -4.06154260E-01 -4.00416462E-01
  3.07078953E-01  3.38735677E-01
Total SCF Density                          R   N=          28
  8.49687425E-01  1.06962595E-02  2.11712038E+00 -1.30477698E-01 -4.98836745E-01
  2.14106907E+00  4.88806980E-01  6.15958793E-06 -3.05699170E-05  8.80081074E-01
 -4.67540020E-01 -6.55514165E-02  3.25330377E-01 -3.25906086E-06  9.14764679E-01