Jobname.Temp
SP        R                             STO-3G              
Number of atoms                            I                3
Charge                                     I                0
Multiplicity                               I                1
Number of electrons                        I               10
Number of alpha electrons                  I                5
Number of beta electrons                   I                5
Atomic numbers                             I   N=           3
           8           1           1
Current cartesian coordinates              R   N=           9
 -5.87376086E-17  3.13674595E-17  3.23938437E-01 -2.09186144E+00 -2.24811682E-16
 -1.29575375E+00  2.09186144E+00 -2.61279935E-17 -1.29575375E+00
Nuclear charges                            R   N=           3
  8.00000000E+00  1.00000000E+00  1.00000000E+00
Number of basis functions                  I                7
Number of contracted shells                I                4
Number of primitive shells                 I               12
Highest angular momentum                   I                1
Largest degree of contraction              I                3
Shell types                                I   N=           4
           0          -1           0           0
Number of primitives per shell             I   N=           4
           3           3           3           3
Shell to atom map                          I   N=           4
           1           1           2           3
Primitive exponents                        R   N=          12
  1.30709320E+02  2.38088610E+01  6.44360830E+00  5.03315130E+00  1.16959610E+00
  3.80389000E-01  3.42525091E+00  6.23913730E-01  1.68855400E-01  3.42525091E+00
  6.23913730E-01  1.68855400E-01
Contraction coefficients                   R   N=          12
  1.54328969E-01  5.35328136E-01  4.44634536E-01 -9.99672287E-02  3.99512825E-01
  7.00115461E-01  1.54328971E-01  5.35328142E-01  4.44634542E-01  1.54328971E-01
  5.35328142E-01  4.44634542E-01
P(S=P) Contraction coefficients            R   N=          12
  0.00000000E+00  0.00000000E+00  0.00000000E+00  1.55916268E-01  6.07683714E-01
  3.91957386E-01  0.00000000E+00  0.00000000E+00  0.00000000E+00  0.00000000E+00
  0.00000000E+00  0.00000000E+00
Coordinates of each shell                  R   N=          12
 -5.87376086E-17  3.13674595E-17  3.23938437E-01 -5.87376086E-17  3.13674595E-17
  3.23938437E-01 -2.09186144E+00 -2.24811682E-16 -1.29575375E+00  2.09186144E+00
 -2.61279935E-17 -1.29575375E+00
Overlap Matrix                             R   N=          28
  1.00000000E+00  2.36703937E-01  1.00000000E+00 -3.38520258E-33 -1.09576590E-32
  1.00000000E+00 -1.89530009E-33  0.00000000E+00  0.00000000E+00  1.00000000E+00
 -2.11713880E-17  2.44788339E-17  0.00000000E+00  0.00000000E+00  1.00000000E+00
  1.91878575E-02  2.37132718E-01 -1.81670884E-01 -2.22482667E-17 -1.40664628E-01
  1.00000000E+00  1.91878575E-02  2.37132718E-01  1.81670884E-01 -4.99327994E-18
 -1.40664628E-01  8.30479804E-02  1.00000000E+00
Core Hamiltonian Matrix                    R   N=          28
 -3.23712224E+01 -7.53003085E+00 -8.99934918E+00  0.00000000E+00  0.00000000E+00
 -7.23359328E+00  0.00000000E+00  0.00000000E+00  0.00000000E+00 -7.17462577E+00
  8.88538981E-03  1.11624869E-01  0.00000000E+00  0.00000000E+00 -7.20997760E+00
 -6.15964602E-01 -1.65312206E+00  1.04456963E+00 -5.75306443E-18  8.28276807E-01
 -3.71075225E+00 -6.15964602E-01 -1.65312206E+00 -1.04456963E+00 -1.29118649E-18
  8.28276807E-01 -4.26663357E-01 -3.71075225E+00
Orbital Coefficients CCMAN2 Alpha          R   N=          49
  9.94826933E-01  2.14545391E-02  6.28350708E-16  2.56239372E-16 -1.61595801E-03
 -2.69971246E-03 -2.69971246E-03  2.51604027E-01 -9.66605692E-01 -1.18352931E-16
  1.09640548E-16  2.81438305E-02 -1.02744112E-01 -1.02744112E-01 -6.57919866E-02
  3.27317197E-01 -1.17465274E-14 -1.56409239E-14  7.13577267E-01 -4.02469583E-01
 -4.02469583E-01 -1.25821808E-15  5.94246815E-15  6.26012952E-01  1.78866109E-15
  1.16615072E-14 -4.65017217E-01  4.65017217E-01 -9.25347096E-16  4.92715733E-15
 -1.04008815E-15  1.00000000E+00  1.11727192E-14 -5.77702082E-15 -6.99906342E-15
 -7.30810547E-02  3.85041348E-01  2.87896256E-14 -1.19746399E-16 -7.29829230E-01
 -6.05126669E-01 -6.05126669E-01 -2.81458884E-15  1.37806433E-14 -8.28057299E-01
 -1.21740998E-16 -2.63539190E-14 -6.09378482E-01  6.09378482E-01
Orbital Coefficients CCMAN2 Beta           R   N=          49
  2.51604027E-01 -9.66605692E-01 -1.18352931E-16  1.09640548E-16  2.81438305E-02
 -1.02744112E-01 -1.02744112E-01 -6.57919866E-02  3.27317197E-01 -1.17465274E-14
 -1.56409239E-14  7.13577267E-01 -4.02469583E-01 -4.02469583E-01 -1.25821808E-15
  5.94246815E-15  6.26012952E-01  1.78866109E-15  1.16615072E-14 -4.65017217E-01
  4.65017217E-01 -9.25347096E-16  4.92715733E-15 -1.04008815E-15  1.00000000E+00
  1.11727192E-14 -5.77702082E-15 -6.99906342E-15 -7.30810547E-02  3.85041348E-01
  2.87896256E-14 -1.19746399E-16 -7.29829230E-01 -6.05126669E-01 -6.05126669E-01
 -2.81458884E-15  1.37806433E-14 -8.28057299E-01 -1.21740998E-16 -2.63539190E-14
 -6.09378482E-01  6.09378482E-01  9.94826933E-01  2.14545391E-02  6.28350708E-16
  2.56239372E-16 -1.61595801E-03 -2.69971246E-03 -2.69971246E-03
EOMEE transition A1 Excitation Energies    R   N=           1
  3.55374879E-01
Number of Active Occ                       I               10
Number of Active Vir                       I                4
Alpha Amplitudes                           R   N=           4
  5.50563484E-01 -3.14090409E-01  5.50563484E-01 -3.14090409E-01
Alpha J Indexes                            I   N=           2
           0           4
Alpha I Indexes                            I   N=           4
           8          13          30          35
EOMEE transition A2 Excitation Energies    R   N=           1
  1.94404077E-01
Number of Active Occ                       I               10
Number of Active Vir                       I                4
Alpha Amplitudes                           R   N=           2
 -6.39435473E-01 -6.39435473E-01
Alpha J Indexes                            I   N=           2
           0           2
Alpha I Indexes                            I   N=           2
          17          39
EOMEE transition B1 Excitation Energies    R   N=           1
  3.52465634E-01
Number of Active Occ                       I               10
Number of Active Vir                       I                4
Alpha Amplitudes                           R   N=           4
  4.77608205E-01 -4.17992886E-01  4.77608205E-01 -4.17992886E-01
Alpha J Indexes                            I   N=           2
           0           4
Alpha I Indexes                            I   N=           4
           9          12          31          34
EOMEE transition B2 Excitation Energies    R   N=           1
  1.45744455E-01
Number of Active Occ                       I               10
Number of Active Vir                       I                4
Alpha Amplitudes                           R   N=           2
 -6.39832253E-01 -6.39832253E-01
Alpha J Indexes                            I   N=           2
           0           2
Alpha I Indexes                            I   N=           2
          16          38
EOMEE transition A1 Excitation Energies    R   N=           1
  1.68483282E-01
Number of Active Occ                       I               10
Number of Active Vir                       I                4
Alpha Amplitudes                           R   N=           4
 -6.12222451E-01 -3.44994071E-01  6.12222451E-01  3.44994071E-01
Alpha J Indexes                            I   N=           2
           0           4
Alpha I Indexes                            I   N=           4
           8          13          30          35
EOMEE transition A2 Excitation Energies    R   N=           1
  1.72212089E-01
Number of Active Occ                       I               10
Number of Active Vir                       I                4
Alpha Amplitudes                           R   N=           2
  6.52528811E-01 -6.52528811E-01
Alpha J Indexes                            I   N=           2
           0           2
Alpha I Indexes                            I   N=           2
          17          39
EOMEE transition B1 Excitation Energies    R   N=           1
  2.16291915E-01
Number of Active Occ                       I               10
Number of Active Vir                       I                4
Alpha Amplitudes                           R   N=           4
  4.95144296E-01  4.84146869E-01 -4.95144296E-01 -4.84146869E-01
Alpha J Indexes                            I   N=           2
           0           4
Alpha I Indexes                            I   N=           4
           9          12          31          34
EOMEE transition B2 Excitation Energies    R   N=           1
  1.21317583E-01
Number of Active Occ                       I               10
Number of Active Vir                       I                4
Alpha Amplitudes                           R   N=           2
 -6.59940546E-01  6.59940546E-01
Alpha J Indexes                            I   N=           2
           0           2
Alpha I Indexes                            I   N=           2
          16          38
Number of independent functions            I                7
Alpha MO coefficients                      R   N=          49
  9.94826933E-01  2.14545391E-02  6.28350708E-16  2.56239372E-16 -1.61595801E-03
 -2.69971246E-03 -2.69971246E-03  2.51604027E-01 -9.66605692E-01 -1.18352931E-16
  1.09640548E-16  2.81438305E-02 -1.02744112E-01 -1.02744112E-01 -1.25821808E-15
  5.94246815E-15  6.26012952E-01  1.78866109E-15  1.16615072E-14 -4.65017217E-01
  4.65017217E-01 -9.25347096E-16  4.92715733E-15 -1.04008815E-15  1.00000000E+00
  1.11727192E-14 -5.77702082E-15 -6.99906342E-15 -6.57919866E-02  3.27317197E-01
 -1.17465274E-14 -1.56409239E-14  7.13577267E-01 -4.02469583E-01 -4.02469583E-01
 -7.30810547E-02  3.85041348E-01  2.87896256E-14 -1.19746399E-16 -7.29829230E-01
 -6.05126669E-01 -6.05126669E-01 -2.81458884E-15  1.37806433E-14 -8.28057299E-01
 -1.21740998E-16 -2.63539190E-14 -6.09378482E-01  6.09378482E-01
Alpha Orbital Energies                     R   N=           7
 -2.03014773E+01 -1.15111403E+00 -4.36239558E-01 -3.96096033E-01 -3.88616563E-01
  2.87130044E-01  3.61566461E-01
Total SCF Density                          R   N=          28
  2.11688274E+00 -4.97841695E-01  2.13723776E+00  9.48036025E-16  1.01740976E-15
  8.37445586E-01  7.93776183E-16 -6.05523205E-16  4.34638942E-17  1.99852198E+00
 -6.69938310E-02  3.33409784E-01 -1.39875861E-16  2.36102802E-15  9.65081871E-01
  9.94967594E-03 -1.29005663E-01 -4.74392453E-01 -8.82257178E-16 -4.77339361E-01
  8.48100151E-01  9.94967594E-03 -1.29005663E-01  4.74392453E-01 -2.69332788E-16
 -4.77339361E-01 -4.45411091E-02  8.48100151E-01
Pure Switching                             I                1
Dipole_Data                                R   N=           3
  1.83114241E-14  2.63574594E-15 -7.62305607E-01
Quadrupole_Data                            R   N=           6
 -4.77561483E+00 -1.55287092E-16 -6.37128636E+00 -1.05746016E-14 -1.63559724E-15
 -5.47581148E+00
Octapole_Data                              R   N=          10
  2.97280260E-14  4.75346911E-16  3.42715059E-15  1.25161290E-15 -3.72615927E-01
 -2.03526268E-17  2.96704234E-01  1.01215043E-14 -1.81673868E-16  8.64385345E-01
Hexadecapole_Data                          R   N=          15
 -1.32219338E+01 -3.34986987E-16 -3.07923762E+00 -3.80445369E-16 -3.57729222E+00
 -1.90541158E-14 -2.32605340E-16 -2.22577771E-15 -8.19696956E-16 -3.19015263E+00
 -1.02804446E-16 -2.01446276E+00 -1.06049942E-14 -9.51264750E-16 -8.10451770E+00
