Jobname.Temp
SP        R                             STO-3G              
Number of atoms                            I                3
Charge                                     I                0
Multiplicity                               I                1
Number of electrons                        I               10
Number of alpha electrons                  I                5
Number of beta electrons                   I                5
Atomic numbers                             I   N=           3
           8           1           1
Current cartesian coordinates              R   N=           9
 -5.55111512E-17  3.13674595E-17  3.23938437E-01 -2.09186144E+00 -2.24811682E-16
 -1.29575375E+00  2.09186144E+00 -2.61279935E-17 -1.29575375E+00
Nuclear charges                            R   N=           3
  8.00000000E+00  1.00000000E+00  1.00000000E+00
Number of basis functions                  I                7
Number of contracted shells                I                4
Number of primitive shells                 I               12
Highest angular momentum                   I                1
Largest degree of contraction              I                3
Shell types                                I   N=           4
           0          -1           0           0
Number of primitives per shell             I   N=           4
           3           3           3           3
Shell to atom map                          I   N=           4
           1           1           2           3
Primitive exponents                        R   N=          12
  1.30709320E+02  2.38088610E+01  6.44360830E+00  5.03315130E+00  1.16959610E+00
  3.80389000E-01  3.42525091E+00  6.23913730E-01  1.68855400E-01  3.42525091E+00
  6.23913730E-01  1.68855400E-01
Contraction coefficients                   R   N=          12
  1.54328969E-01  5.35328136E-01  4.44634536E-01 -9.99672287E-02  3.99512825E-01
  7.00115461E-01  1.54328971E-01  5.35328142E-01  4.44634542E-01  1.54328971E-01
  5.35328142E-01  4.44634542E-01
P(S=P) Contraction coefficients            R   N=          12
  0.00000000E+00  0.00000000E+00  0.00000000E+00  1.55916268E-01  6.07683714E-01
  3.91957386E-01  0.00000000E+00  0.00000000E+00  0.00000000E+00  0.00000000E+00
  0.00000000E+00  0.00000000E+00
Coordinates of each shell                  R   N=          12
 -5.55111512E-17  3.13674595E-17  3.23938437E-01 -5.55111512E-17  3.13674595E-17
  3.23938437E-01 -2.09186144E+00 -2.24811682E-16 -1.29575375E+00  2.09186144E+00
 -2.61279935E-17 -1.29575375E+00
Overlap Matrix                             R   N=          28
  1.00000000E+00  2.36703937E-01  1.00000000E+00  4.11794949E-34  0.00000000E+00
  1.00000000E+00 -1.89530009E-33  0.00000000E+00  0.00000000E+00  1.00000000E+00
 -2.11713880E-17  2.44788339E-17  0.00000000E+00  0.00000000E+00  1.00000000E+00
  1.91878575E-02  2.37132718E-01 -1.81670884E-01 -2.22482667E-17 -1.40664628E-01
  1.00000000E+00  1.91878575E-02  2.37132718E-01  1.81670884E-01 -4.99327994E-18
 -1.40664628E-01  8.30479804E-02  1.00000000E+00
Core Hamiltonian Matrix                    R   N=          28
 -3.23712224E+01 -7.53003085E+00 -8.99934918E+00  0.00000000E+00  0.00000000E+00
 -7.23359328E+00  0.00000000E+00  0.00000000E+00  0.00000000E+00 -7.17462577E+00
  8.88538981E-03  1.11624869E-01  0.00000000E+00  0.00000000E+00 -7.20997760E+00
 -6.15964602E-01 -1.65312206E+00  1.04456963E+00 -5.75306443E-18  8.28276807E-01
 -3.71075225E+00 -6.15964602E-01 -1.65312206E+00 -1.04456963E+00 -1.29118649E-18
  8.28276807E-01 -4.26663357E-01 -3.71075225E+00
Orbital Coefficients CCMAN2 Alpha          R   N=          49
 -9.94826933E-01 -2.14545391E-02  4.90330433E-17  7.47503276E-18  1.61595801E-03
  2.69971246E-03  2.69971246E-03 -2.51604027E-01  9.66605692E-01  2.62637134E-15
 -4.47052302E-16 -2.81438305E-02  1.02744112E-01  1.02744112E-01  6.57919866E-02
 -3.27317197E-01 -2.65759637E-14 -1.67472674E-14 -7.13577266E-01  4.02469584E-01
  4.02469584E-01 -3.69496100E-15  1.72084569E-14 -6.26012952E-01  1.08252395E-15
  3.07184833E-14  4.65017217E-01 -4.65017217E-01  1.02651378E-15 -5.44746276E-15
  7.56805747E-16  1.00000000E+00 -1.21456720E-14  6.56858616E-15  7.39139821E-15
 -7.30810547E-02  3.85041348E-01  1.82492910E-15  1.30382128E-16 -7.29829230E-01
 -6.05126669E-01 -6.05126669E-01 -2.28983499E-16  5.68989300E-16 -8.28057299E-01
 -1.44277114E-16 -1.79023463E-15 -6.09378482E-01  6.09378482E-01
Orbital Coefficients CCMAN2 Beta           R   N=          49
 -2.51604027E-01  9.66605692E-01  2.62637134E-15 -4.47052302E-16 -2.81438305E-02
  1.02744112E-01  1.02744112E-01  6.57919866E-02 -3.27317197E-01 -2.65759637E-14
 -1.67472674E-14 -7.13577266E-01  4.02469584E-01  4.02469584E-01 -3.69496100E-15
  1.72084569E-14 -6.26012952E-01  1.08252395E-15  3.07184833E-14  4.65017217E-01
 -4.65017217E-01  1.02651378E-15 -5.44746276E-15  7.56805747E-16  1.00000000E+00
 -1.21456720E-14  6.56858616E-15  7.39139821E-15 -7.30810547E-02  3.85041348E-01
  1.82492910E-15  1.30382128E-16 -7.29829230E-01 -6.05126669E-01 -6.05126669E-01
 -2.28983499E-16  5.68989300E-16 -8.28057299E-01 -1.44277114E-16 -1.79023463E-15
 -6.09378482E-01  6.09378482E-01 -9.94826933E-01 -2.14545391E-02  4.90330433E-17
  7.47503276E-18  1.61595801E-03  2.69971246E-03  2.69971246E-03
EOMEE transition A1 Excitation Energies    R   N=           1
  3.55483731E-01
Number of Active Occ                       I                8
Number of Active Vir                       I                4
Alpha Amplitudes                           R   N=           4
  5.50620280E-01 -3.13864197E-01  5.50620280E-01 -3.13864197E-01
Alpha J Indexes                            I   N=           2
           0           4
Alpha I Indexes                            I   N=           4
           4           9          22          27
EOMEE transition A2 Excitation Energies    R   N=           1
  1.94367274E-01
Number of Active Occ                       I                8
Number of Active Vir                       I                4
Alpha Amplitudes                           R   N=           2
 -6.39470361E-01 -6.39470361E-01
Alpha J Indexes                            I   N=           2
           0           2
Alpha I Indexes                            I   N=           2
          13          31
EOMEE transition B1 Excitation Energies    R   N=           1
  3.52461781E-01
Number of Active Occ                       I                8
Number of Active Vir                       I                4
Alpha Amplitudes                           R   N=           4
 -4.77400341E-01  4.18088882E-01 -4.77400341E-01  4.18088882E-01
Alpha J Indexes                            I   N=           2
           0           4
Alpha I Indexes                            I   N=           4
           5           8          23          26
EOMEE transition B2 Excitation Energies    R   N=           1
  1.45722059E-01
Number of Active Occ                       I                8
Number of Active Vir                       I                4
Alpha Amplitudes                           R   N=           2
 -6.39840849E-01 -6.39840849E-01
Alpha J Indexes                            I   N=           2
           0           2
Alpha I Indexes                            I   N=           2
          12          30
EOMEE transition A1 Excitation Energies    R   N=           1
  1.68495971E-01
Number of Active Occ                       I                8
Number of Active Vir                       I                4
Alpha Amplitudes                           R   N=           4
 -6.12181525E-01 -3.45079945E-01  6.12181525E-01  3.45079945E-01
Alpha J Indexes                            I   N=           2
           0           4
Alpha I Indexes                            I   N=           4
           4           9          22          27
EOMEE transition A2 Excitation Energies    R   N=           1
  1.72214788E-01
Number of Active Occ                       I                8
Number of Active Vir                       I                4
Alpha Amplitudes                           R   N=           2
 -6.52528685E-01  6.52528685E-01
Alpha J Indexes                            I   N=           2
           0           2
Alpha I Indexes                            I   N=           2
          13          31
EOMEE transition B1 Excitation Energies    R   N=           1
  2.16284668E-01
Number of Active Occ                       I                8
Number of Active Vir                       I                4
Alpha Amplitudes                           R   N=           4
  4.95246817E-01  4.84113059E-01 -4.95246817E-01 -4.84113059E-01
Alpha J Indexes                            I   N=           2
           0           4
Alpha I Indexes                            I   N=           4
           5           8          23          26
EOMEE transition B2 Excitation Energies    R   N=           1
  1.21302116E-01
Number of Active Occ                       I                8
Number of Active Vir                       I                4
Alpha Amplitudes                           R   N=           2
 -6.59942289E-01  6.59942289E-01
Alpha J Indexes                            I   N=           2
           0           2
Alpha I Indexes                            I   N=           2
          12          30
Number of independent functions            I                7
Alpha MO coefficients                      R   N=          49
 -9.94826933E-01 -2.14545391E-02  4.90330433E-17  7.47503276E-18  1.61595801E-03
  2.69971246E-03  2.69971246E-03 -2.51604027E-01  9.66605692E-01  2.62637134E-15
 -4.47052302E-16 -2.81438305E-02  1.02744112E-01  1.02744112E-01 -3.69496100E-15
  1.72084569E-14 -6.26012952E-01  1.08252395E-15  3.07184833E-14  4.65017217E-01
 -4.65017217E-01  1.02651378E-15 -5.44746276E-15  7.56805747E-16  1.00000000E+00
 -1.21456720E-14  6.56858616E-15  7.39139821E-15  6.57919866E-02 -3.27317197E-01
 -2.65759637E-14 -1.67472674E-14 -7.13577266E-01  4.02469584E-01  4.02469584E-01
 -7.30810547E-02  3.85041348E-01  1.82492910E-15  1.30382128E-16 -7.29829230E-01
 -6.05126669E-01 -6.05126669E-01 -2.28983499E-16  5.68989300E-16 -8.28057299E-01
 -1.44277114E-16 -1.79023463E-15 -6.09378482E-01  6.09378482E-01
Alpha Orbital Energies                     R   N=           7
 -2.03014773E+01 -1.15111403E+00 -4.36239558E-01 -3.96096033E-01 -3.88616564E-01
  2.87130044E-01  3.61566461E-01
Total SCF Density                          R   N=          28
  2.11684298E+00 -4.97754461E-01  2.13723584E+00 -6.12597417E-16  2.35425456E-15
  8.37509343E-01  3.61642217E-17 -7.81685010E-16  2.54428800E-16  1.99851434E+00
 -6.71472024E-02  3.33395957E-01 -2.31046511E-15 -2.86037033E-15  9.65109466E-01
  9.91316047E-03 -1.28999013E-01 -4.74367985E-01  9.14488926E-16 -4.77322164E-01
  8.48069685E-01  9.91316047E-03 -1.28999013E-01  4.74367985E-01  6.76486505E-16
 -4.77322164E-01 -4.45317786E-02  8.48069685E-01
Pure Switching                             I                1
Dipole_Data                                R   N=           3
  1.21064637E-14  1.23735020E-15 -7.62528880E-01
Quadrupole_Data                            R   N=           6
 -4.77522439E+00 -9.57113185E-17 -6.37124909E+00 -1.35915607E-14  2.86699816E-15
 -5.47563902E+00
Octapole_Data                              R   N=          10
  3.59431718E-14 -1.65563075E-16  2.81219867E-15  2.84095013E-16 -3.72929406E-01
 -8.66409755E-17  2.96662790E-01  1.27037683E-14  8.89702369E-16  8.64155263E-01
Hexadecapole_Data                          R   N=          15
 -1.32210272E+01 -2.12347904E-16 -3.07915681E+00 -3.08991343E-16 -3.57725082E+00
 -2.72883970E-14  3.56530454E-16 -2.83120818E-15  7.28351042E-16 -3.18987502E+00
 -7.27773879E-17 -2.01442520E+00 -1.50080536E-14  9.86191048E-16 -8.10427229E+00
