Jobname.Temp
SP        R                             STO-3G              
Number of atoms                            I                2
Charge                                     I                0
Multiplicity                               I                1
Number of electrons                        I                4
Number of alpha electrons                  I                2
Number of beta electrons                   I                2
Atomic numbers                             I   N=           2
           3           1
Current cartesian coordinates              R   N=           6
  0.00000000E+00  0.00000000E+00 -7.08647297E-01  0.00000000E+00  0.00000000E+00
  2.12594189E+00
Nuclear charges                            R   N=           2
  3.00000000E+00  1.00000000E+00
Number of basis functions                  I                6
Number of contracted shells                I                3
Number of primitive shells                 I                9
Highest angular momentum                   I                1
Largest degree of contraction              I                3
Shell types                                I   N=           3
           0          -1           0
Number of primitives per shell             I   N=           3
           3           3           3
Shell to atom map                          I   N=           3
           1           1           2
Primitive exponents                        R   N=           9
  1.61195750E+01  2.93620070E+00  7.94650500E-01  6.36289700E-01  1.47860100E-01
  4.80887000E-02  3.42525091E+00  6.23913730E-01  1.68855400E-01
Contraction coefficients                   R   N=           9
  1.54328970E-01  5.35328141E-01  4.44634541E-01 -9.99672298E-02  3.99512829E-01
  7.00115469E-01  1.54328971E-01  5.35328142E-01  4.44634542E-01
P(S=P) Contraction coefficients            R   N=           9
  0.00000000E+00  0.00000000E+00  0.00000000E+00  1.55916265E-01  6.07683701E-01
  3.91957378E-01  0.00000000E+00  0.00000000E+00  0.00000000E+00
Coordinates of each shell                  R   N=           9
  0.00000000E+00  0.00000000E+00 -7.08647297E-01  0.00000000E+00  0.00000000E+00
 -7.08647297E-01  0.00000000E+00  0.00000000E+00  2.12594189E+00
Overlap Matrix                             R   N=          21
  1.00000000E+00  2.41136651E-01  1.00000000E+00  0.00000000E+00  0.00000000E+00
  1.00000000E+00  0.00000000E+00  0.00000000E+00  0.00000000E+00  1.00000000E+00
 -1.66945362E-18  3.81359671E-17  0.00000000E+00  0.00000000E+00  1.00000000E+00
  8.22634833E-02  4.20265205E-01  0.00000000E+00  0.00000000E+00  5.30156904E-01
  1.00000000E+00
Core Hamiltonian Matrix                    R   N=          21
 -4.75887973E+00 -1.06963796E+00 -1.40697823E+00  0.00000000E+00  0.00000000E+00
 -1.14534434E+00  0.00000000E+00  0.00000000E+00  0.00000000E+00 -1.14534434E+00
 -1.83040172E-02 -1.27478645E-01  0.00000000E+00  0.00000000E+00 -1.24779450E+00
 -3.75732381E-01 -7.57200431E-01  0.00000000E+00  0.00000000E+00 -8.87562208E-01
 -1.52065152E+00
Orbital Coefficients CCMAN2 Alpha          R   N=          36
 -9.91112723E-01 -3.19922922E-02  6.06119756E-17  4.84534030E-16  7.18999557E-03
 -7.01599065E-03  1.74497393E-01 -4.46066847E-01 -1.53158670E-17 -2.15496151E-16
 -3.49532108E-01 -5.44025479E-01 -2.08660995E-01  8.01442537E-01  1.83629256E-16
 -2.98832615E-17 -6.12790792E-01 -1.33758643E-01  8.39672593E-17 -2.60564336E-16
  1.00000000E+00 -9.51039370E-18  1.80463666E-16  3.25562237E-17  2.64950007E-16
 -1.34291542E-17  2.35073129E-17  1.00000000E+00 -1.47634441E-16 -6.39881360E-17
  7.87438964E-02 -7.43616184E-01 -2.47010822E-17 -6.56307435E-17 -1.01039992E+00
  1.23748599E+00
Orbital Coefficients CCMAN2 Beta           R   N=          36
  1.74497393E-01 -4.46066847E-01 -1.53158670E-17 -2.15496151E-16 -3.49532108E-01
 -5.44025479E-01 -2.08660995E-01  8.01442537E-01  1.83629256E-16 -2.98832615E-17
 -6.12790792E-01 -1.33758643E-01  8.39672593E-17 -2.60564336E-16  1.00000000E+00
 -9.51039370E-18  1.80463666E-16  3.25562237E-17  2.64950007E-16 -1.34291542E-17
  2.35073129E-17  1.00000000E+00 -1.47634441E-16 -6.39881360E-17  7.87438964E-02
 -7.43616184E-01 -2.47010822E-17 -6.56307435E-17 -1.01039992E+00  1.23748599E+00
 -9.91112723E-01 -3.19922922E-02  6.06119756E-17  4.84534030E-16  7.18999557E-03
 -7.01599065E-03
EOMEE transition A Excitation Energies     R   N=           3
  1.38128424E-01  1.91152473E-01  1.91152474E-01
Number of Active Occ                       I                4
Number of Active Vir                       I                8
Alpha Amplitudes                           R   N=           6
  6.67727747E-01  6.67727747E-01  6.68613049E-01  6.68613049E-01  6.68613049E-01
  6.68613049E-01
Alpha J Indexes                            I   N=           4
           0           2           4           6
Alpha I Indexes                            I   N=           6
           8          28          10          30           9          29
EOMEE transition A Excitation Energies     R   N=           3
  1.21776057E-01  1.69572428E-01  1.69572429E-01
Number of Active Occ                       I                4
Number of Active Vir                       I                8
Alpha Amplitudes                           R   N=           6
  6.83148230E-01 -6.83148230E-01 -6.83373191E-01  6.83373191E-01 -6.83373191E-01
  6.83373191E-01
Alpha J Indexes                            I   N=           4
           0           2           4           6
Alpha I Indexes                            I   N=           6
           8          28          10          30           9          29
Number of independent functions            I                6
Alpha MO coefficients                      R   N=          36
 -9.91112723E-01 -3.19922922E-02  6.06119756E-17  4.84534030E-16  7.18999557E-03
 -7.01599065E-03  1.74497393E-01 -4.46066847E-01 -1.53158670E-17 -2.15496151E-16
 -3.49532108E-01 -5.44025479E-01 -2.08660995E-01  8.01442537E-01  1.83629256E-16
 -2.98832615E-17 -6.12790792E-01 -1.33758643E-01  8.39672593E-17 -2.60564336E-16
  1.00000000E+00 -9.51039370E-18  1.80463666E-16  3.25562237E-17  2.64950007E-16
 -1.34291542E-17  2.35073129E-17  1.00000000E+00 -1.47634441E-16 -6.39881360E-17
  7.87438964E-02 -7.43616184E-01 -2.47010822E-17 -6.56307435E-17 -1.01039992E+00
  1.23748599E+00
Alpha Orbital Energies                     R   N=           6
 -2.34683565E+00 -2.93561251E-01  7.89924178E-02  1.63749915E-01  1.63749915E-01
  5.74297298E-01
Total SCF Density                          R   N=          21
  2.02976327E+00 -1.09101027E-01  4.75147645E-01 -9.45807880E-17 -1.41211086E-17
  1.64246476E-03 -4.41225391E-16  5.04792130E-17  7.76442610E-20  1.64246477E-03
 -1.32126143E-01  3.20527356E-01 -6.30326488E-18  4.62390341E-17  2.18299335E-01
 -1.74282908E-01  4.58757096E-01 -8.51625445E-18  5.92795170E-17  3.18782953E-01
  6.31186317E-01
Pure Switching                             I                1
Dipole_Data                                R   N=           3
  2.15651172E-16 -2.39750441E-16 -4.63353777E+00
Quadrupole_Data                            R   N=           6
 -5.43554386E+00 -4.90847527E-19 -5.43554386E+00 -2.62388080E-17 -3.05303989E-16
 -5.00949701E+00
Octapole_Data                              R   N=          10
  4.00241405E-16 -4.30841338E-16  1.33413802E-16 -1.29252402E-15 -3.18196000E+00
  1.84067823E-19 -3.18196000E+00  1.37920670E-16 -2.73629614E-16 -9.29695428E+00
Hexadecapole_Data                          R   N=          15
 -1.33043454E+01 -1.29792745E-18 -4.43478180E+00 -1.29792745E-18 -1.33043454E+01
 -2.50101507E-17 -1.41822389E-16 -8.33671690E-18 -4.25467167E-16 -5.86874156E+00
 -5.01667917E-19 -5.86874156E+00 -1.40763492E-17 -5.74394431E-16 -2.19348183E+01
