                  Welcome to Q-Chem
     A Quantum Leap Into The Future Of Chemistry


 Q-Chem 5.4 (devel), Q-Chem, Inc., Pleasanton, CA (2021)

 E. Epifanovsky,  A. T. B. Gilbert,  Xintian Feng,  Joonho Lee,  Yuezhi Mao,  
 N. Mardirossian,  P. Pokhilko,  A. White,  M. Wormit,  M. P. Coons,  
 A. L. Dempwolff,  Zhengting Gan,  D. Hait,  P. R. Horn,  L. D. Jacobson,  
 I. Kaliman,  J. Kussmann,  A. W. Lange,  Ka Un Lao,  D. S. Levine,  Jie Liu,  
 S. C. McKenzie,  A. F. Morrison,  K. Nanda,  F. Plasser,  D. R. Rehn,  
 M. L. Vidal,  Zhi-Qiang You,  Ying Zhu,  B. Alam,  B. Albrecht,  
 A. Aldossary,  E. Alguire,  J. H. Andersen,  D. Barton,  K. Begam,  A. Behn,  
 Y. A. Bernard,  E. J. Berquist,  H. Burton,  A. Carreras,  K. Carter-Fenk,  
 R. Chakraborty,  A. D. Chien,  K. D. Closser,  V. Cofer-Shabica,  
 S. Dasgupta,  Jia Deng,  M. de Wergifosse,  M. Diedenhofen,  Hainam Do,  
 S. Ehlert,  Po-Tung Fang,  S. Fatehi,  Qingguo Feng,  T. Friedhoff,  
 J. Gayvert,  Qinghui Ge,  G. Gidofalvi,  M. Goldey,  J. Gomes,  
 C. Gonzalez-Espinoza,  S. Gulania,  A. Gunina,  M. W. D. Hanson-Heine,  
 P. H. P. Harbach,  A. W. Hauser,  M. F. Herbst,  M. Hernandez Vera,  
 M. Hodecker,  Z. C. Holden,  S. Houck,  Xunkun Huang,  Kerwin Hui,  
 B. C. Huynh,  M. Ivanov,  Hyunjun Ji,  Hanjie Jiang,  B. Kaduk,  S. Kaehler,  
 K. Khistyaev,  Jaehoon Kim,  P. Klunzinger,  Z. Koczor-Benda,  
 Joong Hoon Koh,  D. Kosenkov,  L. Koulias,  T. Kowalczyk,  C. M. Krauter,  
 K. Kue,  A. Kunitsa,  T. Kus,  A. Landau,  K. V. Lawler,  D. Lefrancois,  
 S. Lehtola,  Rain Li,  Yi-Pei Li,  Jiashu Liang,  M. Liebenthal,  
 Hung-Hsuan Lin,  You-Sheng Lin,  Fenglai Liu,  Kuan-Yu Liu,  
 M. Loipersberger,  A. Luenser,  A. Manjanath,  P. Manohar,  E. Mansoor,  
 S. F. Manzer,  Shan-Ping Mao,  A. V. Marenich,  T. Markovich,  S. Mason,  
 S. A. Maurer,  P. F. McLaughlin,  M. F. S. J. Menger,  J.-M. Mewes,  
 S. A. Mewes,  P. Morgante,  J. W. Mullinax,  K. J. Oosterbaan,  G. Paran,  
 Alexander C. Paul,  Suranjan K. Paul,  F. Pavosevic,  Zheng Pei,  S. Prager,  
 E. I. Proynov,  E. Ramos,  B. Rana,  A. E. Rask,  A. Rettig,  R. M. Richard,  
 F. Rob,  E. Rossomme,  T. Scheele,  M. Scheurer,  M. Schneider,  
 N. Sergueev,  S. M. Sharada,  W. Skomorowski,  D. W. Small,  C. J. Stein,  
 Yu-Chuan Su,  E. J. Sundstrom,  Zhen Tao,  J. Thirman,  T. Tsuchimochi,  
 N. M. Tubman,  S. P. Veccham,  O. Vydrov,  J. Wenzel,  J. Witte,  A. Yamada,  
 Kun Yao,  S. Yeganeh,  S. R. Yost,  A. Zech,  Igor Ying Zhang,  Xing Zhang,  
 Yu Zhang,  D. Zuev,  A. Aspuru-Guzik,  A. T. Bell,  N. A. Besley,  
 K. B. Bravaya,  B. R. Brooks,  D. Casanova,  Jeng-Da Chai,  S. Coriani,  
 C. J. Cramer,  A. E. DePrince, III,  R. A. DiStasio Jr.,  A. Dreuw,  
 B. D. Dunietz,  T. R. Furlani,  W. A. Goddard III,  S. Grimme,  
 S. Hammes-Schiffer,  T. Head-Gordon,  W. J. Hehre,  Chao-Ping Hsu,  
 T.-C. Jagau,  Yousung Jung,  A. Klamt,  Jing Kong,  D. S. Lambrecht,  
 WanZhen Liang,  N. J. Mayhall,  C. W. McCurdy,  J. B. Neaton,  
 C. Ochsenfeld,  J. A. Parkhill,  R. Peverati,  V. A. Rassolov,  Yihan Shao,  
 L. V. Slipchenko,  T. Stauch,  R. P. Steele,  J. E. Subotnik,  
 A. J. W. Thom,  A. Tkatchenko,  D. G. Truhlar,  T. Van Voorhis,  
 T. A. Wesolowski,  K. B. Whaley,  H. L. Woodcock III,  P. M. Zimmerman,  
 S. Faraji,  P. M. W. Gill,  M. Head-Gordon,  J. M. Herbert,  A. I. Krylov

 Additional authors for Version 5.4.1: 
 S. Kotaru,  Shaozhi Li,  Xiangyuan Li,  F. Matz,  A. Molle,  Haisheng Ren,  
 Yingli Su,  Hung-Yi Tsai,  C. Utku,  Fang Wang

 Contributors to earlier versions of Q-Chem not listed above: 
 R. D. Adamson,  B. Austin,  R. Baer,  J. Baker,  G. J. O. Beran,  
 K. Brandhorst,  S. T. Brown,  E. F. C. Byrd,  A. K. Chakraborty,  
 G. K. L. Chan,  Chun-Min Chang,  Yunqing Chen,  C.-L. Cheng,  
 Siu Hung Chien,  D. M. Chipman,  D. L. Crittenden,  H. Dachsel,  
 R. J. Doerksen,  A. D. Dutoi,  R. G. Edgar,  J. Fosso-Tande,  
 L. Fusti-Molnar,  D. Ghosh,  A. Ghysels,  A. Golubeva-Zadorozhnaya,  
 J. Gonthier,  M. S. Gordon,  S. R. Gwaltney,  G. Hawkins,  J. E. Herr,  
 A. Heyden,  S. Hirata,  E. G. Hohenstein,  G. Kedziora,  F. J. Keil,  
 C. Kelley,  Jihan Kim,  R. A. King,  R. Z. Khaliullin,  P. P. Korambath,  
 W. Kurlancheek,  A. Laurent,  A. M. Lee,  M. S. Lee,  S. V. Levchenko,  
 Ching Yeh Lin,  D. Liotard,  E. Livshits,  R. C. Lochan,  I. Lotan,  
 L. A. Martinez-Martinez,  P. E. Maslen,  N. Nair,  D. P. O'Neill,  
 D. Neuhauser,  E. Neuscamman,  C. M. Oana,  R. Olivares-Amaya,  R. Olson,  
 T. M. Perrine,  B. Peters,  P. A. Pieniazek,  A. Prociuk,  Y. M. Rhee,  
 J. Ritchie,  M. A. Rohrdanz,  E. Rosta,  N. J. Russ,  H. F. Schaefer III,  
 M. W. Schmidt,  N. E. Schultz,  S. Sharma,  N. Shenvi,  C. D. Sherrill,  
 A. C. Simmonett,  A. Sodt,  T. Stein,  D. Stuck,  K. S. Thanthiriwatte,  
 V. Vanovschi,  L. Vogt,  Tao Wang,  A. Warshel,  M. A. Watson,  
 C. F. Williams,  Q. Wu,  X. Xu,  Jun Yang,  W. Zhang,  Yan Zhao

 Please cite Q-Chem as follows:
 Y. Shao et al., Mol. Phys. 113, 184-215 (2015)
 DOI: 10.1080/00268976.2014.952696

 Q-Chem 5.4.1 for Intel X86 EM64T Linux

 Parts of Q-Chem use Armadillo 9.900.5 (Nocturnal Misbehaviour).
 http://arma.sourceforge.net/

 Q-Chem begins on Thu Aug 11 11:27:43 2022  

orc44
 Host: 0

     Scratch files written to /scratch/yongbin/qchem2739//
 Processing $rem in /home/users/yongbin/software/yongbin_quantum/config/preferences:
 Processing $rem in /home/users/yongbin/.qchemrc:

 Checking the input file for inconsistencies... 	...done.

--------------------------------------------------------------
User input:
--------------------------------------------------------------
$comment
Hydrogen molecule
$end

$molecule
0 1
  Li        0.0000000000    0.0000000000    0.0000000000
  H         0.0000000000    0.0000000000    1.5000000000
$end

$rem
   n_frozen_core = 0
   print_qis = true
   BASIS                = sto-3g
   SYMMETRY             = false
   CC_SYMMETRY          = false
   METHOD               = eom-ccsd
   EE_SINGLETS          = [3]  ! Compute two EOM-EE singlet excited states
   EE_TRIPLETS          = [3]  ! Compute two EOM-EE triplet excited states
   CC_REF_PROP          = true ! Compute ground state properties
   CC_EOM_PROP          = true ! Compute excited state properties
   CC_OSFNO             = true
   GUI                  = 2
$end                  
--------------------------------------------------------------
 ----------------------------------------------------------------
             Standard Nuclear Orientation (Angstroms)
    I     Atom           X                Y                Z
 ----------------------------------------------------------------
    1      Li      0.0000000000     0.0000000000    -0.3750000000
    2      H       0.0000000000     0.0000000000     1.1250000000
 ----------------------------------------------------------------
 Molecular Point Group                 C*v   NOp =***
 Largest Abelian Subgroup              C2v   NOp =  1
 Nuclear Repulsion Energy =           1.05835442 hartrees
 There are        2 alpha and        2 beta electrons
 Requested basis set is STO-3G
 There are 3 shells and 6 basis functions
 Total memory of 2000 MB is distributed as follows: 
   MEM_STATIC is set to 192 MB
   QALLOC/CCMAN JOB total memory use is  1808 MB
 Warning: actual memory use might exceed 2000 MB

 Total QAlloc Memory Limit   2000 MB
 Mega-Array Size       188 MB
 MEM_STATIC part       192 MB

                       Distance Matrix (Angstroms)
             Li(  1)
   H (  2)  1.500000

 A cutoff of  1.0D-14 yielded      6 shell pairs
 There are        27 function pairs
 Smallest overlap matrix eigenvalue = 3.20E-01

 Scale SEOQF with 1.000000e+00/1.000000e+00/1.000000e+00

 Standard Electronic Orientation quadrupole field applied
 Nucleus-field energy     =    -0.0000000018 hartrees
 Guess from superposition of atomic densities
 Warning:  Energy on first SCF cycle will be non-variational
 SAD guess density has 4.000000 electrons

 -----------------------------------------------------------------------
  General SCF calculation program by
  Eric Jon Sundstrom, Paul Horn, Yuezhi Mao, Dmitri Zuev, Alec White,
  David Stuck, Shaama M.S., Shane Yost, Joonho Lee, David Small,
  Daniel Levine, Susi Lehtola, Hugh Burton, Evgeny Epifanovsky,
  Bang C. Huynh
 -----------------------------------------------------------------------
 Hartree-Fock
 using 20 threads for integral computing
 -------------------------------------------------------
 OpenMP Integral computing Module                
 Release: version 1.0, May 2013, Q-Chem Inc. Pittsburgh 
 -------------------------------------------------------
 A restricted SCF calculation will be
 performed using DIIS
 SCF converges when DIIS error is below 1.0e-08
 ---------------------------------------
  Cycle       Energy         DIIS error
 ---------------------------------------
    1      -7.5771280870      5.87e-02  
    2      -7.8543468720      2.45e-02  
    3      -7.8622895378      5.31e-03  
    4      -7.8631714582      1.95e-03  
    5      -7.8633574057      8.20e-05  
    6      -7.8633576204      6.32e-06  
    7      -7.8633576216      1.84e-07  
    8      -7.8633576216      6.82e-09  Convergence criterion met
 ---------------------------------------
 SCF time:   CPU 0.90s  wall 1.00s 
 SCF   energy in the final basis set =       -7.8633576216
 Total energy in the final basis set =       -7.8633576216


 ------------------------------------------------------------------------------

   CCMAN2: suite of methods based on coupled cluster
           and equation of motion theories.

   Components:
   * libvmm-1.3-trunk
     by Evgeny Epifanovsky, Ilya Kaliman.
   * libtensor-2.5-trunk
     by Evgeny Epifanovsky, Michael Wormit, Dmitry Zuev, Sam Manzer, 
        Ilya Kaliman.
   * libcc-2.5-trunk
     by Evgeny Epifanovsky, Arik Landau, Tomasz Kus, Kirill Khistyaev, 
        Dmitry Zuev, Prashant Manohar, Xintian Feng, Anna Krylov, 
        Matthew Goldey, Alec White, Thomas Jagau, Kaushik Nanda, 
        Anastasia Gunina, Alexander Kunitsa, Joonho Lee.

   CCMAN original authors:
   Anna I. Krylov, C. David Sherrill, Steven R. Gwaltney,
   Edward F. C. Byrd (2000)
   Sergey V. Levchenko, Lyudmila V. Slipchenko, Tao Wang,
   Ana-Maria C. Cristian (2003)
   Piotr A. Pieniazek, C. Melania Oana, Evgeny Epifanovsky (2007)
   Prashant Manohar (2009)

 ------------------------------------------------------------------------------


 Allocating and initializing 1808MB of RAM...
 Calculation will run on 20 cores.


 Occupation and symmetry of molecular orbitals

 Point group: C1 (1 irreducible representation).

                           A     All 
 -------------------------------------
 All molecular orbitals:
  - Alpha                  6     6   
  - Beta                   6     6   
 -------------------------------------
 Alpha orbitals:
  - Frozen occupied        0     0   
  - Active occupied        2     2   
  - Active virtual         4     4   
  - Frozen virtual         0     0   
 -------------------------------------
 Beta orbitals:
  - Frozen occupied        0     0   
  - Active occupied        2     2   
  - Active virtual         4     4   
  - Frozen virtual         0     0   
 -------------------------------------

 Import integrals:   CPU 0.00 s  wall 0.00 s

 Import integrals:   CPU 0.28 s  wall 0.02 s

 Run QIS:   CPU 0.01 s  wall 0.01 s

 MP2 amplitudes:   CPU 0.00 s  wall 0.00 s

Running a double precision version
           CCSD T amplitudes will be solved using DIIS.

           Start     Size      MaxIter   EConv     TConv     
           3         7         100       1.00e-06  1.00e-04  
 ------------------------------------------------------------------------------
           Energy (a.u.)   Ediff      Tdiff       Comment
 ------------------------------------------------------------------------------
            -7.87555649                           
     1      -7.87964904   4.09e-03   1.18e-01     
     2      -7.88116591   1.52e-03   3.57e-02     
     3      -7.88176543   6.00e-04   1.27e-02     
     4      -7.88224545   4.80e-04   8.99e-03     Switched to DIIS steps.
     5      -7.88234212   9.67e-05   5.08e-03     
     6      -7.88235283   1.07e-05   7.21e-04     
     7      -7.88235306   2.22e-07   7.57e-05     
 ------------------------------------------------------------------------------
            -7.88235306                           CCSD T converged.

End of double precision
 SCF energy                 = -7.86335762
 MP2 energy                 = -7.87555649
 CCSD correlation energy    = -0.01899543
 CCSD total energy          = -7.88235306

 CCSD  T1^2 = 0.0026  T2^2 = 0.0206  Leading amplitudes:

 Amplitude    Orbitals with energies
 -0.0362165643       2 (A) A                   ->    3 (A) A                    
                    -0.2936                          0.0790                     
 -0.0362165643       2 (A) B                   ->    3 (A) B                    
                    -0.2936                          0.0790                     
 -0.0030326525       2 (A) A                   ->    6 (A) A                    
                    -0.2936                          0.5743                     
 -0.0030326525       2 (A) B                   ->    6 (A) B                    
                    -0.2936                          0.5743                     

 Amplitude    Orbitals with energies
 -0.1083678644       2 (A) A       2 (A) B     ->    6 (A) A       6 (A) B      
                    -0.2936       -0.2936            0.5743        0.5743       
  0.1083678644       2 (A) A       2 (A) B     ->    6 (A) B       6 (A) A      
                    -0.2936       -0.2936            0.5743        0.5743       
  0.1083678644       2 (A) B       2 (A) A     ->    6 (A) A       6 (A) B      
                    -0.2936       -0.2936            0.5743        0.5743       
 -0.1083678644       2 (A) B       2 (A) A     ->    6 (A) B       6 (A) A      
                    -0.2936       -0.2936            0.5743        0.5743       

 Computing CCSD intermediates for later calculations in double precision
 Finished.

Running a double precision version
           CCSD Lambda amplitudes will be solved using DIIS.
           Start     Size      MaxIter   EConv     LConv     
           3         7         100       1.00e-06  1.00e-04  
 ------------------------------------------------------------------------------
            Enorm      Ldiff       Comment
 ------------------------------------------------------------------------------
     1     5.39e-03   4.31e-03     
     2     1.56e-03   1.43e-03     
     3     7.36e-04   6.30e-04     
     4     3.13e-04   4.89e-04     Switched to DIIS steps.
     5     9.98e-05   2.38e-04     
     6     1.62e-05   8.25e-05     
     7     1.30e-06   2.79e-06     
     8     1.71e-07   3.97e-07     
 ------------------------------------------------------------------------------
                                   CCSD Lambda converged.

 Computing density matrices in double precision...
 Computing density matrices... Done.
 Reference state properties
 Dipole moment (a.u.): 1.822974 (X 0.000000, Y 0.000000, Z -1.822974)
 R-squared (a.u.): 17.832998 (XX 4.041194, YY 4.041194, ZZ 9.750610)
 Gauge origin (a.u.): (0.000000, 0.000000, 0.000000)
 Angular momentum (a.u.) against gauge origin: 
 (X 0.000000i, Y 0.000000i, Z 0.000000i)
 Traces of the OPDMs: Tr(AA) 2.000000, Tr(BB) 2.000000
 Density matrix was written to a file for further analysis.

 CCSD calculation:   CPU 0.52 s  wall 0.34 s

        Solving for EOMEE-CCSD A singlet states.

Running a double precision version
        EOMEE-CCSD/MP2 right amplitudes will be solved using Davidson.
        Amplitudes will be solved using standard  algorithm.
     Hard-coded thresholds: 
     LinDepThresh=1.00e-15  NormThresh=1.00e-06  ReorthogonThresh=1.00e-02

      Roots     MaxVec    MaxIter   Precond   Conv      Shift    
      3         120       60        1         1.00e-05  0.00e+00  
 ------------------------------------------------------------------------------
      Iter ConvRoots NVecs ResNorm Current eigenvalues (eV)
 ------------------------------------------------------------------------------
      0    0      3     3.33e-02   5.2387   6.8320   6.8320   
      1    0      6     2.17e-02   4.0293   5.3839   5.3839   
      2    0      9     7.60e-04   3.7716   5.2005   5.2005   
      3    0      12    6.33e-05   3.7606   5.2003   5.2003   
      4    3      15    1.08e-06   3.7587*  5.2015*  5.2015*  

     Davidson procedure converged

 EOMEE transition 1/A
 Total energy = -7.74422463 a.u.  Excitation energy = 3.75866557 eV.
 R0^2 = 0.0046  R1^2 = 0.8933  R2^2 = 0.1067  Res^2 = 2.70e-06
 Conv-d = yes

 Amplitude    Transitions between orbitals
  0.6677277473       2 (A) A                   ->    3 (A) A                    
  0.6677277473       2 (A) B                   ->    3 (A) B                    
  0.0281560605       2 (A) A                   ->    6 (A) A                    
  0.0281560605       2 (A) B                   ->    6 (A) B                    
 -0.0040563683       1 (A) A                   ->    3 (A) A                    
 -0.0040563683       1 (A) B                   ->    3 (A) B                    
 -0.0019104187       1 (A) A                   ->    6 (A) A                    
 -0.0019104187       1 (A) B                   ->    6 (A) B                    
  0.2289231079       2 (A) A       2 (A) B     ->    3 (A) A       3 (A) B      
 -0.2289231079       2 (A) A       2 (A) B     ->    3 (A) B       3 (A) A      
 -0.2289231079       2 (A) B       2 (A) A     ->    3 (A) A       3 (A) B      
  0.2289231079       2 (A) B       2 (A) A     ->    3 (A) B       3 (A) A      
 -0.1603374409       2 (A) A       2 (A) B     ->    3 (A) A       6 (A) B      
 -0.1603374409       2 (A) A       2 (A) B     ->    6 (A) A       3 (A) B      
  0.1603374409       2 (A) A       2 (A) B     ->    6 (A) B       3 (A) A      
  0.1603374409       2 (A) A       2 (A) B     ->    3 (A) B       6 (A) A      
  0.1603374409       2 (A) B       2 (A) A     ->    3 (A) A       6 (A) B      
  0.1603374409       2 (A) B       2 (A) A     ->    6 (A) A       3 (A) B      
 -0.1603374409       2 (A) B       2 (A) A     ->    3 (A) B       6 (A) A      
 -0.1603374409       2 (A) B       2 (A) A     ->    6 (A) B       3 (A) A      
 -0.0399471709       2 (A) A       2 (A) B     ->    6 (A) A       6 (A) B      
  0.0399471709       2 (A) A       2 (A) B     ->    6 (A) B       6 (A) A      
  0.0399471709       2 (A) B       2 (A) A     ->    6 (A) A       6 (A) B      
 -0.0399471709       2 (A) B       2 (A) A     ->    6 (A) B       6 (A) A      
  0.0231336069       2 (A) A       2 (A) B     ->    5 (A) A       5 (A) B      
 -0.0231336069       2 (A) A       2 (A) B     ->    5 (A) B       5 (A) A      
 -0.0231336069       2 (A) B       2 (A) A     ->    5 (A) A       5 (A) B      
  0.0231336069       2 (A) B       2 (A) A     ->    5 (A) B       5 (A) A      
  0.0231336069       2 (A) A       2 (A) B     ->    4 (A) A       4 (A) B      
 -0.0231336069       2 (A) A       2 (A) B     ->    4 (A) B       4 (A) A      
 -0.0231336069       2 (A) B       2 (A) A     ->    4 (A) A       4 (A) B      
  0.0231336069       2 (A) B       2 (A) A     ->    4 (A) B       4 (A) A      
  0.0046180971       1 (A) A       2 (A) B     ->    6 (A) A       3 (A) B      
  0.0046180971       2 (A) A       1 (A) B     ->    3 (A) A       6 (A) B      
 -0.0046180971       1 (A) A       2 (A) B     ->    3 (A) B       6 (A) A      
 -0.0046180971       2 (A) A       1 (A) B     ->    6 (A) B       3 (A) A      
 -0.0046180971       2 (A) B       1 (A) A     ->    6 (A) A       3 (A) B      
 -0.0046180971       1 (A) B       2 (A) A     ->    3 (A) A       6 (A) B      
  0.0046180971       1 (A) B       2 (A) A     ->    6 (A) B       3 (A) A      
  0.0046180971       2 (A) B       1 (A) A     ->    3 (A) B       6 (A) A      
  0.0045133136       1 (A) A       2 (A) B     ->    3 (A) A       3 (A) B      
  0.0045133136       2 (A) A       1 (A) B     ->    3 (A) A       3 (A) B      
 -0.0045133136       1 (A) A       2 (A) B     ->    3 (A) B       3 (A) A      
 -0.0045133136       2 (A) A       1 (A) B     ->    3 (A) B       3 (A) A      
 -0.0045133136       2 (A) B       1 (A) A     ->    3 (A) A       3 (A) B      
 -0.0045133136       1 (A) B       2 (A) A     ->    3 (A) A       3 (A) B      
  0.0045133136       1 (A) B       2 (A) A     ->    3 (A) B       3 (A) A      
  0.0045133136       2 (A) B       1 (A) A     ->    3 (A) B       3 (A) A      
 -0.0040759313       1 (A) A       2 (A) A     ->    3 (A) A       6 (A) A      
  0.0040759313       1 (A) A       2 (A) A     ->    6 (A) A       3 (A) A      
  0.0040759313       2 (A) A       1 (A) A     ->    3 (A) A       6 (A) A      
 -0.0040759313       2 (A) A       1 (A) A     ->    6 (A) A       3 (A) A      
 -0.0040759313       1 (A) B       2 (A) B     ->    3 (A) B       6 (A) B      
  0.0040759313       1 (A) B       2 (A) B     ->    6 (A) B       3 (A) B      
  0.0040759313       2 (A) B       1 (A) B     ->    3 (A) B       6 (A) B      
 -0.0040759313       2 (A) B       1 (A) B     ->    6 (A) B       3 (A) B      
 -0.0036984907       1 (A) A       1 (A) B     ->    3 (A) A       3 (A) B      
  0.0036984907       1 (A) A       1 (A) B     ->    3 (A) B       3 (A) A      
  0.0036984907       1 (A) B       1 (A) A     ->    3 (A) A       3 (A) B      
 -0.0036984907       1 (A) B       1 (A) A     ->    3 (A) B       3 (A) A      
  0.0025905905       1 (A) A       2 (A) B     ->    5 (A) A       5 (A) B      
  0.0025905905       2 (A) A       1 (A) B     ->    5 (A) A       5 (A) B      
 -0.0025905905       1 (A) A       2 (A) B     ->    5 (A) B       5 (A) A      
 -0.0025905905       2 (A) A       1 (A) B     ->    5 (A) B       5 (A) A      
 -0.0025905905       2 (A) B       1 (A) A     ->    5 (A) A       5 (A) B      
 -0.0025905905       1 (A) B       2 (A) A     ->    5 (A) A       5 (A) B      
  0.0025905905       1 (A) B       2 (A) A     ->    5 (A) B       5 (A) A      
  0.0025905905       2 (A) B       1 (A) A     ->    5 (A) B       5 (A) A      
  0.0025905905       1 (A) A       2 (A) B     ->    4 (A) A       4 (A) B      
  0.0025905905       2 (A) A       1 (A) B     ->    4 (A) A       4 (A) B      
 -0.0025905905       1 (A) A       2 (A) B     ->    4 (A) B       4 (A) A      
 -0.0025905905       2 (A) A       1 (A) B     ->    4 (A) B       4 (A) A      
 -0.0025905905       2 (A) B       1 (A) A     ->    4 (A) A       4 (A) B      
 -0.0025905905       1 (A) B       2 (A) A     ->    4 (A) A       4 (A) B      
  0.0025905905       1 (A) B       2 (A) A     ->    4 (A) B       4 (A) A      
  0.0025905905       2 (A) B       1 (A) A     ->    4 (A) B       4 (A) A      
  0.0013906643       1 (A) A       1 (A) B     ->    3 (A) A       6 (A) B      
  0.0013906643       1 (A) A       1 (A) B     ->    6 (A) A       3 (A) B      
 -0.0013906643       1 (A) A       1 (A) B     ->    6 (A) B       3 (A) A      
 -0.0013906643       1 (A) A       1 (A) B     ->    3 (A) B       6 (A) A      
 -0.0013906643       1 (A) B       1 (A) A     ->    3 (A) A       6 (A) B      
 -0.0013906643       1 (A) B       1 (A) A     ->    6 (A) A       3 (A) B      
  0.0013906643       1 (A) B       1 (A) A     ->    3 (A) B       6 (A) A      
  0.0013906643       1 (A) B       1 (A) A     ->    6 (A) B       3 (A) A      
  0.0013551755       1 (A) A       2 (A) B     ->    6 (A) A       6 (A) B      
  0.0013551755       2 (A) A       1 (A) B     ->    6 (A) A       6 (A) B      
 -0.0013551755       1 (A) A       2 (A) B     ->    6 (A) B       6 (A) A      
 -0.0013551755       2 (A) A       1 (A) B     ->    6 (A) B       6 (A) A      
 -0.0013551755       2 (A) B       1 (A) A     ->    6 (A) A       6 (A) B      
 -0.0013551755       1 (A) B       2 (A) A     ->    6 (A) A       6 (A) B      
  0.0013551755       1 (A) B       2 (A) A     ->    6 (A) B       6 (A) A      
  0.0013551755       2 (A) B       1 (A) A     ->    6 (A) B       6 (A) A      
  0.0005558501       1 (A) A       2 (A) B     ->    3 (A) A       6 (A) B      
  0.0005558501       2 (A) A       1 (A) B     ->    6 (A) A       3 (A) B      
 -0.0005558501       1 (A) A       2 (A) B     ->    6 (A) B       3 (A) A      
 -0.0005558501       2 (A) A       1 (A) B     ->    3 (A) B       6 (A) A      
 -0.0005558501       2 (A) B       1 (A) A     ->    3 (A) A       6 (A) B      
 -0.0005558501       1 (A) B       2 (A) A     ->    6 (A) A       3 (A) B      
  0.0005558501       1 (A) B       2 (A) A     ->    3 (A) B       6 (A) A      
  0.0005558501       2 (A) B       1 (A) A     ->    6 (A) B       3 (A) A      
  0.0004171888       1 (A) A       1 (A) B     ->    6 (A) A       6 (A) B      
 -0.0004171888       1 (A) A       1 (A) B     ->    6 (A) B       6 (A) A      
 -0.0004171888       1 (A) B       1 (A) A     ->    6 (A) A       6 (A) B      
  0.0004171888       1 (A) B       1 (A) A     ->    6 (A) B       6 (A) A      
  0.0000896448       1 (A) A       1 (A) B     ->    4 (A) A       4 (A) B      
 -0.0000896448       1 (A) A       1 (A) B     ->    4 (A) B       4 (A) A      
 -0.0000896448       1 (A) B       1 (A) A     ->    4 (A) A       4 (A) B      
  0.0000896448       1 (A) B       1 (A) A     ->    4 (A) B       4 (A) A      
  0.0000896448       1 (A) A       1 (A) B     ->    5 (A) A       5 (A) B      
 -0.0000896448       1 (A) A       1 (A) B     ->    5 (A) B       5 (A) A      
 -0.0000896448       1 (A) B       1 (A) A     ->    5 (A) A       5 (A) B      
  0.0000896448       1 (A) B       1 (A) A     ->    5 (A) B       5 (A) A      

              Summary of significant orbitals:

               Number  Type             Irrep      Energy
               1       Occ  Alpha       1 (A)     -2.3468
               2       Occ  Alpha       2 (A)     -0.2936
               1       Occ  Beta        1 (A)     -2.3468
               2       Occ  Beta        2 (A)     -0.2936
               3       Vir  Alpha       3 (A)      0.0790
               4       Vir  Alpha       4 (A)      0.1637
               5       Vir  Alpha       5 (A)      0.1637
               6       Vir  Alpha       6 (A)      0.5743
               3       Vir  Beta        3 (A)      0.0790
               4       Vir  Beta        4 (A)      0.1637
               5       Vir  Beta        5 (A)      0.1637
               6       Vir  Beta        6 (A)      0.5743


 EOMEE transition 2/A
 Total energy = -7.69120058 a.u.  Excitation energy = 5.20152334 eV.
 R0^2 = 0.0000  R1^2 = 0.8942  R2^2 = 0.1058  Res^2 = 2.78e-07
 Conv-d = yes

 Amplitude    Transitions between orbitals
  0.6686130488       2 (A) A                   ->    5 (A) A                    
  0.6686130488       2 (A) B                   ->    5 (A) B                    
 -0.0064730422       1 (A) A                   ->    5 (A) A                    
 -0.0064730422       1 (A) B                   ->    5 (A) B                    
 -0.1842649639       2 (A) A       2 (A) B     ->    5 (A) A       6 (A) B      
 -0.1842649639       2 (A) A       2 (A) B     ->    6 (A) A       5 (A) B      
  0.1842649639       2 (A) A       2 (A) B     ->    6 (A) B       5 (A) A      
  0.1842649639       2 (A) A       2 (A) B     ->    5 (A) B       6 (A) A      
  0.1842649639       2 (A) B       2 (A) A     ->    5 (A) A       6 (A) B      
  0.1842649639       2 (A) B       2 (A) A     ->    6 (A) A       5 (A) B      
 -0.1842649639       2 (A) B       2 (A) A     ->    5 (A) B       6 (A) A      
 -0.1842649639       2 (A) B       2 (A) A     ->    6 (A) B       5 (A) A      
  0.1375505506       2 (A) A       2 (A) B     ->    3 (A) A       5 (A) B      
  0.1375505506       2 (A) A       2 (A) B     ->    5 (A) A       3 (A) B      
 -0.1375505506       2 (A) A       2 (A) B     ->    5 (A) B       3 (A) A      
 -0.1375505506       2 (A) A       2 (A) B     ->    3 (A) B       5 (A) A      
 -0.1375505506       2 (A) B       2 (A) A     ->    3 (A) A       5 (A) B      
 -0.1375505506       2 (A) B       2 (A) A     ->    5 (A) A       3 (A) B      
  0.1375505506       2 (A) B       2 (A) A     ->    3 (A) B       5 (A) A      
  0.1375505506       2 (A) B       2 (A) A     ->    5 (A) B       3 (A) A      
 -0.0037729787       1 (A) A       2 (A) A     ->    5 (A) A       6 (A) A      
  0.0037729787       1 (A) A       2 (A) A     ->    6 (A) A       5 (A) A      
  0.0037729787       2 (A) A       1 (A) A     ->    5 (A) A       6 (A) A      
 -0.0037729787       2 (A) A       1 (A) A     ->    6 (A) A       5 (A) A      
 -0.0037729787       1 (A) B       2 (A) B     ->    5 (A) B       6 (A) B      
  0.0037729787       1 (A) B       2 (A) B     ->    6 (A) B       5 (A) B      
  0.0037729787       2 (A) B       1 (A) B     ->    5 (A) B       6 (A) B      
 -0.0037729787       2 (A) B       1 (A) B     ->    6 (A) B       5 (A) B      
  0.0026530417       1 (A) A       2 (A) B     ->    5 (A) A       3 (A) B      
  0.0026530417       2 (A) A       1 (A) B     ->    3 (A) A       5 (A) B      
 -0.0026530417       1 (A) A       2 (A) B     ->    3 (A) B       5 (A) A      
 -0.0026530417       2 (A) A       1 (A) B     ->    5 (A) B       3 (A) A      
 -0.0026530417       2 (A) B       1 (A) A     ->    5 (A) A       3 (A) B      
 -0.0026530417       1 (A) B       2 (A) A     ->    3 (A) A       5 (A) B      
  0.0026530417       1 (A) B       2 (A) A     ->    5 (A) B       3 (A) A      
  0.0026530417       2 (A) B       1 (A) A     ->    3 (A) B       5 (A) A      
  0.0025911723       1 (A) A       2 (A) B     ->    3 (A) A       5 (A) B      
  0.0025911723       2 (A) A       1 (A) B     ->    5 (A) A       3 (A) B      
 -0.0025911723       1 (A) A       2 (A) B     ->    5 (A) B       3 (A) A      
 -0.0025911723       2 (A) A       1 (A) B     ->    3 (A) B       5 (A) A      
 -0.0025911723       2 (A) B       1 (A) A     ->    3 (A) A       5 (A) B      
 -0.0025911723       1 (A) B       2 (A) A     ->    5 (A) A       3 (A) B      
  0.0025911723       1 (A) B       2 (A) A     ->    3 (A) B       5 (A) A      
  0.0025911723       2 (A) B       1 (A) A     ->    5 (A) B       3 (A) A      
 -0.0019850210       1 (A) A       2 (A) B     ->    5 (A) A       6 (A) B      
 -0.0019850210       2 (A) A       1 (A) B     ->    6 (A) A       5 (A) B      
  0.0019850210       1 (A) A       2 (A) B     ->    6 (A) B       5 (A) A      
  0.0019850210       2 (A) A       1 (A) B     ->    5 (A) B       6 (A) A      
  0.0019850210       2 (A) B       1 (A) A     ->    5 (A) A       6 (A) B      
  0.0019850210       1 (A) B       2 (A) A     ->    6 (A) A       5 (A) B      
 -0.0019850210       1 (A) B       2 (A) A     ->    5 (A) B       6 (A) A      
 -0.0019850210       2 (A) B       1 (A) A     ->    6 (A) B       5 (A) A      
 -0.0019160145       1 (A) A       1 (A) B     ->    3 (A) A       5 (A) B      
 -0.0019160145       1 (A) A       1 (A) B     ->    5 (A) A       3 (A) B      
  0.0019160145       1 (A) A       1 (A) B     ->    5 (A) B       3 (A) A      
  0.0019160145       1 (A) A       1 (A) B     ->    3 (A) B       5 (A) A      
  0.0019160145       1 (A) B       1 (A) A     ->    3 (A) A       5 (A) B      
  0.0019160145       1 (A) B       1 (A) A     ->    5 (A) A       3 (A) B      
 -0.0019160145       1 (A) B       1 (A) A     ->    3 (A) B       5 (A) A      
 -0.0019160145       1 (A) B       1 (A) A     ->    5 (A) B       3 (A) A      
  0.0017817740       1 (A) A       2 (A) B     ->    6 (A) A       5 (A) B      
  0.0017817740       2 (A) A       1 (A) B     ->    5 (A) A       6 (A) B      
 -0.0017817740       1 (A) A       2 (A) B     ->    5 (A) B       6 (A) A      
 -0.0017817740       2 (A) A       1 (A) B     ->    6 (A) B       5 (A) A      
 -0.0017817740       2 (A) B       1 (A) A     ->    6 (A) A       5 (A) B      
 -0.0017817740       1 (A) B       2 (A) A     ->    5 (A) A       6 (A) B      
  0.0017817740       1 (A) B       2 (A) A     ->    6 (A) B       5 (A) A      
  0.0017817740       2 (A) B       1 (A) A     ->    5 (A) B       6 (A) A      
  0.0014770643       1 (A) A       1 (A) B     ->    5 (A) A       6 (A) B      
  0.0014770643       1 (A) A       1 (A) B     ->    6 (A) A       5 (A) B      
 -0.0014770643       1 (A) A       1 (A) B     ->    6 (A) B       5 (A) A      
 -0.0014770643       1 (A) A       1 (A) B     ->    5 (A) B       6 (A) A      
 -0.0014770643       1 (A) B       1 (A) A     ->    5 (A) A       6 (A) B      
 -0.0014770643       1 (A) B       1 (A) A     ->    6 (A) A       5 (A) B      
  0.0014770643       1 (A) B       1 (A) A     ->    5 (A) B       6 (A) A      
  0.0014770643       1 (A) B       1 (A) A     ->    6 (A) B       5 (A) A      
 -0.0000617418       1 (A) A       2 (A) A     ->    3 (A) A       5 (A) A      
  0.0000617418       1 (A) A       2 (A) A     ->    5 (A) A       3 (A) A      
  0.0000617418       2 (A) A       1 (A) A     ->    3 (A) A       5 (A) A      
 -0.0000617418       2 (A) A       1 (A) A     ->    5 (A) A       3 (A) A      
 -0.0000617418       1 (A) B       2 (A) B     ->    3 (A) B       5 (A) B      
  0.0000617418       1 (A) B       2 (A) B     ->    5 (A) B       3 (A) B      
  0.0000617418       2 (A) B       1 (A) B     ->    3 (A) B       5 (A) B      
 -0.0000617418       2 (A) B       1 (A) B     ->    5 (A) B       3 (A) B      

              Summary of significant orbitals:

               Number  Type             Irrep      Energy
               1       Occ  Alpha       1 (A)     -2.3468
               2       Occ  Alpha       2 (A)     -0.2936
               1       Occ  Beta        1 (A)     -2.3468
               2       Occ  Beta        2 (A)     -0.2936
               3       Vir  Alpha       3 (A)      0.0790
               5       Vir  Alpha       5 (A)      0.1637
               6       Vir  Alpha       6 (A)      0.5743
               3       Vir  Beta        3 (A)      0.0790
               5       Vir  Beta        5 (A)      0.1637
               6       Vir  Beta        6 (A)      0.5743


 EOMEE transition 3/A
 Total energy = -7.69120058 a.u.  Excitation energy = 5.20152335 eV.
 R0^2 = 0.0000  R1^2 = 0.8942  R2^2 = 0.1058  Res^2 = 2.78e-07
 Conv-d = yes

 Amplitude    Transitions between orbitals
  0.6686130488       2 (A) A                   ->    4 (A) A                    
  0.6686130488       2 (A) B                   ->    4 (A) B                    
 -0.0064730422       1 (A) A                   ->    4 (A) A                    
 -0.0064730422       1 (A) B                   ->    4 (A) B                    
 -0.1842649639       2 (A) A       2 (A) B     ->    4 (A) A       6 (A) B      
 -0.1842649639       2 (A) A       2 (A) B     ->    6 (A) A       4 (A) B      
  0.1842649639       2 (A) A       2 (A) B     ->    6 (A) B       4 (A) A      
  0.1842649639       2 (A) A       2 (A) B     ->    4 (A) B       6 (A) A      
  0.1842649639       2 (A) B       2 (A) A     ->    4 (A) A       6 (A) B      
  0.1842649639       2 (A) B       2 (A) A     ->    6 (A) A       4 (A) B      
 -0.1842649639       2 (A) B       2 (A) A     ->    4 (A) B       6 (A) A      
 -0.1842649639       2 (A) B       2 (A) A     ->    6 (A) B       4 (A) A      
  0.1375505506       2 (A) A       2 (A) B     ->    3 (A) A       4 (A) B      
  0.1375505506       2 (A) A       2 (A) B     ->    4 (A) A       3 (A) B      
 -0.1375505506       2 (A) A       2 (A) B     ->    4 (A) B       3 (A) A      
 -0.1375505506       2 (A) A       2 (A) B     ->    3 (A) B       4 (A) A      
 -0.1375505506       2 (A) B       2 (A) A     ->    3 (A) A       4 (A) B      
 -0.1375505506       2 (A) B       2 (A) A     ->    4 (A) A       3 (A) B      
  0.1375505506       2 (A) B       2 (A) A     ->    3 (A) B       4 (A) A      
  0.1375505506       2 (A) B       2 (A) A     ->    4 (A) B       3 (A) A      
 -0.0037729787       1 (A) A       2 (A) A     ->    4 (A) A       6 (A) A      
  0.0037729787       1 (A) A       2 (A) A     ->    6 (A) A       4 (A) A      
  0.0037729787       2 (A) A       1 (A) A     ->    4 (A) A       6 (A) A      
 -0.0037729787       2 (A) A       1 (A) A     ->    6 (A) A       4 (A) A      
 -0.0037729787       1 (A) B       2 (A) B     ->    4 (A) B       6 (A) B      
  0.0037729787       1 (A) B       2 (A) B     ->    6 (A) B       4 (A) B      
  0.0037729787       2 (A) B       1 (A) B     ->    4 (A) B       6 (A) B      
 -0.0037729787       2 (A) B       1 (A) B     ->    6 (A) B       4 (A) B      
  0.0026530417       1 (A) A       2 (A) B     ->    4 (A) A       3 (A) B      
  0.0026530417       2 (A) A       1 (A) B     ->    3 (A) A       4 (A) B      
 -0.0026530417       1 (A) A       2 (A) B     ->    3 (A) B       4 (A) A      
 -0.0026530417       2 (A) A       1 (A) B     ->    4 (A) B       3 (A) A      
 -0.0026530417       2 (A) B       1 (A) A     ->    4 (A) A       3 (A) B      
 -0.0026530417       1 (A) B       2 (A) A     ->    3 (A) A       4 (A) B      
  0.0026530417       1 (A) B       2 (A) A     ->    4 (A) B       3 (A) A      
  0.0026530417       2 (A) B       1 (A) A     ->    3 (A) B       4 (A) A      
  0.0025911723       1 (A) A       2 (A) B     ->    3 (A) A       4 (A) B      
  0.0025911723       2 (A) A       1 (A) B     ->    4 (A) A       3 (A) B      
 -0.0025911723       1 (A) A       2 (A) B     ->    4 (A) B       3 (A) A      
 -0.0025911723       2 (A) A       1 (A) B     ->    3 (A) B       4 (A) A      
 -0.0025911723       2 (A) B       1 (A) A     ->    3 (A) A       4 (A) B      
 -0.0025911723       1 (A) B       2 (A) A     ->    4 (A) A       3 (A) B      
  0.0025911723       1 (A) B       2 (A) A     ->    3 (A) B       4 (A) A      
  0.0025911723       2 (A) B       1 (A) A     ->    4 (A) B       3 (A) A      
 -0.0019850210       1 (A) A       2 (A) B     ->    4 (A) A       6 (A) B      
 -0.0019850210       2 (A) A       1 (A) B     ->    6 (A) A       4 (A) B      
  0.0019850210       1 (A) A       2 (A) B     ->    6 (A) B       4 (A) A      
  0.0019850210       2 (A) A       1 (A) B     ->    4 (A) B       6 (A) A      
  0.0019850210       2 (A) B       1 (A) A     ->    4 (A) A       6 (A) B      
  0.0019850210       1 (A) B       2 (A) A     ->    6 (A) A       4 (A) B      
 -0.0019850210       1 (A) B       2 (A) A     ->    4 (A) B       6 (A) A      
 -0.0019850210       2 (A) B       1 (A) A     ->    6 (A) B       4 (A) A      
 -0.0019160145       1 (A) A       1 (A) B     ->    3 (A) A       4 (A) B      
 -0.0019160145       1 (A) A       1 (A) B     ->    4 (A) A       3 (A) B      
  0.0019160145       1 (A) A       1 (A) B     ->    4 (A) B       3 (A) A      
  0.0019160145       1 (A) A       1 (A) B     ->    3 (A) B       4 (A) A      
  0.0019160145       1 (A) B       1 (A) A     ->    3 (A) A       4 (A) B      
  0.0019160145       1 (A) B       1 (A) A     ->    4 (A) A       3 (A) B      
 -0.0019160145       1 (A) B       1 (A) A     ->    3 (A) B       4 (A) A      
 -0.0019160145       1 (A) B       1 (A) A     ->    4 (A) B       3 (A) A      
  0.0017817740       1 (A) A       2 (A) B     ->    6 (A) A       4 (A) B      
  0.0017817740       2 (A) A       1 (A) B     ->    4 (A) A       6 (A) B      
 -0.0017817740       1 (A) A       2 (A) B     ->    4 (A) B       6 (A) A      
 -0.0017817740       2 (A) A       1 (A) B     ->    6 (A) B       4 (A) A      
 -0.0017817740       2 (A) B       1 (A) A     ->    6 (A) A       4 (A) B      
 -0.0017817740       1 (A) B       2 (A) A     ->    4 (A) A       6 (A) B      
  0.0017817740       1 (A) B       2 (A) A     ->    6 (A) B       4 (A) A      
  0.0017817740       2 (A) B       1 (A) A     ->    4 (A) B       6 (A) A      
  0.0014770643       1 (A) A       1 (A) B     ->    4 (A) A       6 (A) B      
  0.0014770643       1 (A) A       1 (A) B     ->    6 (A) A       4 (A) B      
 -0.0014770643       1 (A) A       1 (A) B     ->    6 (A) B       4 (A) A      
 -0.0014770643       1 (A) A       1 (A) B     ->    4 (A) B       6 (A) A      
 -0.0014770643       1 (A) B       1 (A) A     ->    4 (A) A       6 (A) B      
 -0.0014770643       1 (A) B       1 (A) A     ->    6 (A) A       4 (A) B      
  0.0014770643       1 (A) B       1 (A) A     ->    4 (A) B       6 (A) A      
  0.0014770643       1 (A) B       1 (A) A     ->    6 (A) B       4 (A) A      
 -0.0000617418       1 (A) A       2 (A) A     ->    3 (A) A       4 (A) A      
  0.0000617418       1 (A) A       2 (A) A     ->    4 (A) A       3 (A) A      
  0.0000617418       2 (A) A       1 (A) A     ->    3 (A) A       4 (A) A      
 -0.0000617418       2 (A) A       1 (A) A     ->    4 (A) A       3 (A) A      
 -0.0000617418       1 (A) B       2 (A) B     ->    3 (A) B       4 (A) B      
  0.0000617418       1 (A) B       2 (A) B     ->    4 (A) B       3 (A) B      
  0.0000617418       2 (A) B       1 (A) B     ->    3 (A) B       4 (A) B      
 -0.0000617418       2 (A) B       1 (A) B     ->    4 (A) B       3 (A) B      

              Summary of significant orbitals:

               Number  Type             Irrep      Energy
               1       Occ  Alpha       1 (A)     -2.3468
               2       Occ  Alpha       2 (A)     -0.2936
               1       Occ  Beta        1 (A)     -2.3468
               2       Occ  Beta        2 (A)     -0.2936
               3       Vir  Alpha       3 (A)      0.0790
               4       Vir  Alpha       4 (A)      0.1637
               6       Vir  Alpha       6 (A)      0.5743
               3       Vir  Beta        3 (A)      0.0790
               4       Vir  Beta        4 (A)      0.1637
               6       Vir  Beta        6 (A)      0.5743


 EEs and amplitudes of EOMEE has be exported to fchk file
Running a double precision version
      EOM-CCSD/MP2 left amplitudes will be solved using Davidson.
        Amplitudes will be solved using MOM  algorithm.
     Hard-coded thresholds: 
     LinDepThresh=1.00e-15  NormThresh=1.00e-06  ReorthogonThresh=1.00e-02

      Roots     MaxVec    MaxIter   Precond   Conv      Shift    
      3         120       60        1         1.00e-05  0.00e+00  
 ------------------------------------------------------------------------------
      Iter ConvRoots NVecs ResNorm Current eigenvalues (eV)
 ------------------------------------------------------------------------------
      0    0      3     5.71e-04   3.7587   5.2015   5.2015   
      1    0      6     1.71e-04   3.7581   5.2016   5.2016   
      2    2      9     9.30e-06   3.7581   5.2016*  5.2016*  
      3    3      10    1.70e-06   3.7581*  5.2016*  5.2016*  

     Davidson procedure converged

biorthogonolize_left_to_right(): degenerate block detected, ndeg=2

 Excited state properties for  EOMEE-CCSD transition 1/A
 Dipole moment (a.u.): 1.717770 (X 0.000000, Y 0.000000, Z 1.717770)
 R-squared (a.u.): 23.438797 (XX 4.275940, YY 4.275940, ZZ 14.886917)
 Gauge origin (a.u.): (0.000000, 0.000000, 0.000000)
 Angular momentum (a.u.) against gauge origin: 
 (X 0.000000i, Y 0.000000i, Z 0.000000i)
 Traces of the OPDMs: Tr(AA) 2.000000, Tr(BB) 2.000000

 Excited state properties for  EOMEE-CCSD transition 2/A
 Dipole moment (a.u.): 0.099190 (X 0.000000, Y 0.000000, Z 0.099190)
 R-squared (a.u.): 20.926797 (XX 5.872690, YY 5.872692, ZZ 9.181414)
 Gauge origin (a.u.): (0.000000, 0.000000, 0.000000)
 Angular momentum (a.u.) against gauge origin: 
 (X 0.000000i, Y 0.000000i, Z 0.000000i)
 Traces of the OPDMs: Tr(AA) 2.000000, Tr(BB) 2.000000

 Excited state properties for  EOMEE-CCSD transition 3/A
 Dipole moment (a.u.): 0.099190 (X 0.000000, Y 0.000000, Z 0.099190)
 R-squared (a.u.): 20.926797 (XX 5.872692, YY 5.872690, ZZ 9.181414)
 Gauge origin (a.u.): (0.000000, 0.000000, 0.000000)
 Angular momentum (a.u.) against gauge origin: 
 (X 0.000000i, Y 0.000000i, Z 0.000000i)
 Traces of the OPDMs: Tr(AA) 2.000000, Tr(BB) 2.000000

        Solving for EOMEE-CCSD A triplet states.

Running a double precision version
        EOMEE-CCSD/MP2 right amplitudes will be solved using Davidson.
        Amplitudes will be solved using standard  algorithm.
     Hard-coded thresholds: 
     LinDepThresh=1.00e-15  NormThresh=1.00e-06  ReorthogonThresh=1.00e-02

      Roots     MaxVec    MaxIter   Precond   Conv      Shift    
      3         120       60        1         1.00e-05  0.00e+00  
 ------------------------------------------------------------------------------
      Iter ConvRoots NVecs ResNorm Current eigenvalues (eV)
 ------------------------------------------------------------------------------
      0    0      3     1.99e-02   4.4727   5.4919   5.4919   
      1    0      6     1.33e-02   3.4549   4.7473   4.7473   
      2    0      9     5.41e-04   3.3196   4.6144   4.6144   
      3    0      12    4.32e-05   3.3145   4.6131   4.6131   
      4    3      15    4.19e-07   3.3137*  4.6143*  4.6143*  

     Davidson procedure converged

 EOMEE transition 1/A
 Total energy = -7.76057700 a.u.  Excitation energy = 3.31369502 eV.
 R0^2 = 0.0000  R1^2 = 0.9511  R2^2 = 0.0489  Res^2 = 5.27e-07
 Conv-d = yes

 Amplitude    Transitions between orbitals
  0.6831482299       2 (A) A                   ->    3 (A) A                    
 -0.6831482299       2 (A) B                   ->    3 (A) B                    
 -0.0941553380       2 (A) A                   ->    6 (A) A                    
  0.0941553380       2 (A) B                   ->    6 (A) B                    
 -0.0037976820       1 (A) A                   ->    3 (A) A                    
  0.0037976820       1 (A) B                   ->    3 (A) B                    
 -0.0012347805       1 (A) A                   ->    6 (A) A                    
  0.0012347805       1 (A) B                   ->    6 (A) B                    
 -0.1559949599       2 (A) A       2 (A) B     ->    3 (A) A       6 (A) B      
  0.1559949599       2 (A) A       2 (A) B     ->    6 (A) A       3 (A) B      
  0.1559949599       2 (A) A       2 (A) B     ->    6 (A) B       3 (A) A      
 -0.1559949599       2 (A) A       2 (A) B     ->    3 (A) B       6 (A) A      
  0.1559949599       2 (A) B       2 (A) A     ->    3 (A) A       6 (A) B      
 -0.1559949599       2 (A) B       2 (A) A     ->    6 (A) A       3 (A) B      
  0.1559949599       2 (A) B       2 (A) A     ->    3 (A) B       6 (A) A      
 -0.1559949599       2 (A) B       2 (A) A     ->    6 (A) B       3 (A) A      
 -0.0050575051       1 (A) A       2 (A) B     ->    6 (A) A       3 (A) B      
  0.0050575051       2 (A) A       1 (A) B     ->    3 (A) A       6 (A) B      
  0.0050575051       1 (A) A       2 (A) B     ->    3 (A) B       6 (A) A      
 -0.0050575051       2 (A) A       1 (A) B     ->    6 (A) B       3 (A) A      
  0.0050575051       2 (A) B       1 (A) A     ->    6 (A) A       3 (A) B      
 -0.0050575051       1 (A) B       2 (A) A     ->    3 (A) A       6 (A) B      
  0.0050575051       1 (A) B       2 (A) A     ->    6 (A) B       3 (A) A      
 -0.0050575051       2 (A) B       1 (A) A     ->    3 (A) B       6 (A) A      
 -0.0046627782       1 (A) A       2 (A) B     ->    3 (A) A       3 (A) B      
  0.0046627782       2 (A) A       1 (A) B     ->    3 (A) A       3 (A) B      
  0.0046627782       1 (A) A       2 (A) B     ->    3 (A) B       3 (A) A      
 -0.0046627782       2 (A) A       1 (A) B     ->    3 (A) B       3 (A) A      
  0.0046627782       2 (A) B       1 (A) A     ->    3 (A) A       3 (A) B      
 -0.0046627782       1 (A) B       2 (A) A     ->    3 (A) A       3 (A) B      
  0.0046627782       1 (A) B       2 (A) A     ->    3 (A) B       3 (A) A      
 -0.0046627782       2 (A) B       1 (A) A     ->    3 (A) B       3 (A) A      
 -0.0042584217       1 (A) A       2 (A) A     ->    3 (A) A       6 (A) A      
  0.0042584217       1 (A) A       2 (A) A     ->    6 (A) A       3 (A) A      
  0.0042584217       2 (A) A       1 (A) A     ->    3 (A) A       6 (A) A      
 -0.0042584217       2 (A) A       1 (A) A     ->    6 (A) A       3 (A) A      
  0.0042584217       1 (A) B       2 (A) B     ->    3 (A) B       6 (A) B      
 -0.0042584217       1 (A) B       2 (A) B     ->    6 (A) B       3 (A) B      
 -0.0042584217       2 (A) B       1 (A) B     ->    3 (A) B       6 (A) B      
  0.0042584217       2 (A) B       1 (A) B     ->    6 (A) B       3 (A) B      
 -0.0034074708       1 (A) A       2 (A) B     ->    5 (A) A       5 (A) B      
  0.0034074708       2 (A) A       1 (A) B     ->    5 (A) A       5 (A) B      
  0.0034074708       1 (A) A       2 (A) B     ->    5 (A) B       5 (A) A      
 -0.0034074708       2 (A) A       1 (A) B     ->    5 (A) B       5 (A) A      
  0.0034074708       2 (A) B       1 (A) A     ->    5 (A) A       5 (A) B      
 -0.0034074708       1 (A) B       2 (A) A     ->    5 (A) A       5 (A) B      
  0.0034074708       1 (A) B       2 (A) A     ->    5 (A) B       5 (A) A      
 -0.0034074708       2 (A) B       1 (A) A     ->    5 (A) B       5 (A) A      
 -0.0034074708       1 (A) A       2 (A) B     ->    4 (A) A       4 (A) B      
  0.0034074708       2 (A) A       1 (A) B     ->    4 (A) A       4 (A) B      
  0.0034074708       1 (A) A       2 (A) B     ->    4 (A) B       4 (A) A      
 -0.0034074708       2 (A) A       1 (A) B     ->    4 (A) B       4 (A) A      
  0.0034074708       2 (A) B       1 (A) A     ->    4 (A) A       4 (A) B      
 -0.0034074708       1 (A) B       2 (A) A     ->    4 (A) A       4 (A) B      
  0.0034074708       1 (A) B       2 (A) A     ->    4 (A) B       4 (A) A      
 -0.0034074708       2 (A) B       1 (A) A     ->    4 (A) B       4 (A) A      
 -0.0014390975       1 (A) A       2 (A) B     ->    3 (A) A       6 (A) B      
  0.0014390975       2 (A) A       1 (A) B     ->    6 (A) A       3 (A) B      
  0.0014390975       1 (A) A       2 (A) B     ->    6 (A) B       3 (A) A      
 -0.0014390975       2 (A) A       1 (A) B     ->    3 (A) B       6 (A) A      
  0.0014390975       2 (A) B       1 (A) A     ->    3 (A) A       6 (A) B      
 -0.0014390975       1 (A) B       2 (A) A     ->    6 (A) A       3 (A) B      
  0.0014390975       1 (A) B       2 (A) A     ->    3 (A) B       6 (A) A      
 -0.0014390975       2 (A) B       1 (A) A     ->    6 (A) B       3 (A) A      
  0.0013297285       1 (A) A       1 (A) B     ->    3 (A) A       6 (A) B      
 -0.0013297285       1 (A) A       1 (A) B     ->    6 (A) A       3 (A) B      
 -0.0013297285       1 (A) A       1 (A) B     ->    6 (A) B       3 (A) A      
  0.0013297285       1 (A) A       1 (A) B     ->    3 (A) B       6 (A) A      
 -0.0013297285       1 (A) B       1 (A) A     ->    3 (A) A       6 (A) B      
  0.0013297285       1 (A) B       1 (A) A     ->    6 (A) A       3 (A) B      
 -0.0013297285       1 (A) B       1 (A) A     ->    3 (A) B       6 (A) A      
  0.0013297285       1 (A) B       1 (A) A     ->    6 (A) B       3 (A) A      
 -0.0006154559       1 (A) A       2 (A) B     ->    6 (A) A       6 (A) B      
  0.0006154559       2 (A) A       1 (A) B     ->    6 (A) A       6 (A) B      
  0.0006154559       1 (A) A       2 (A) B     ->    6 (A) B       6 (A) A      
 -0.0006154559       2 (A) A       1 (A) B     ->    6 (A) B       6 (A) A      
  0.0006154559       2 (A) B       1 (A) A     ->    6 (A) A       6 (A) B      
 -0.0006154559       1 (A) B       2 (A) A     ->    6 (A) A       6 (A) B      
  0.0006154559       1 (A) B       2 (A) A     ->    6 (A) B       6 (A) A      
 -0.0006154559       2 (A) B       1 (A) A     ->    6 (A) B       6 (A) A      

              Summary of significant orbitals:

               Number  Type             Irrep      Energy
               1       Occ  Alpha       1 (A)     -2.3468
               2       Occ  Alpha       2 (A)     -0.2936
               1       Occ  Beta        1 (A)     -2.3468
               2       Occ  Beta        2 (A)     -0.2936
               3       Vir  Alpha       3 (A)      0.0790
               4       Vir  Alpha       4 (A)      0.1637
               5       Vir  Alpha       5 (A)      0.1637
               6       Vir  Alpha       6 (A)      0.5743
               3       Vir  Beta        3 (A)      0.0790
               4       Vir  Beta        4 (A)      0.1637
               5       Vir  Beta        5 (A)      0.1637
               6       Vir  Beta        6 (A)      0.5743


 EOMEE transition 2/A
 Total energy = -7.71278063 a.u.  Excitation energy = 4.61430044 eV.
 R0^2 = 0.0000  R1^2 = 0.9340  R2^2 = 0.0660  Res^2 = 3.65e-07
 Conv-d = yes

 Amplitude    Transitions between orbitals
 -0.6833731906       2 (A) A                   ->    5 (A) A                    
  0.6833731906       2 (A) B                   ->    5 (A) B                    
  0.0014272401       1 (A) A                   ->    5 (A) A                    
 -0.0014272401       1 (A) B                   ->    5 (A) B                    
  0.1496608468       2 (A) A       2 (A) B     ->    5 (A) A       6 (A) B      
 -0.1496608468       2 (A) A       2 (A) B     ->    6 (A) A       5 (A) B      
 -0.1496608468       2 (A) A       2 (A) B     ->    6 (A) B       5 (A) A      
  0.1496608468       2 (A) A       2 (A) B     ->    5 (A) B       6 (A) A      
 -0.1496608468       2 (A) B       2 (A) A     ->    5 (A) A       6 (A) B      
  0.1496608468       2 (A) B       2 (A) A     ->    6 (A) A       5 (A) B      
 -0.1496608468       2 (A) B       2 (A) A     ->    5 (A) B       6 (A) A      
  0.1496608468       2 (A) B       2 (A) A     ->    6 (A) B       5 (A) A      
  0.1026865969       2 (A) A       2 (A) B     ->    3 (A) A       5 (A) B      
 -0.1026865969       2 (A) A       2 (A) B     ->    5 (A) A       3 (A) B      
 -0.1026865969       2 (A) A       2 (A) B     ->    5 (A) B       3 (A) A      
  0.1026865969       2 (A) A       2 (A) B     ->    3 (A) B       5 (A) A      
 -0.1026865969       2 (A) B       2 (A) A     ->    3 (A) A       5 (A) B      
  0.1026865969       2 (A) B       2 (A) A     ->    5 (A) A       3 (A) B      
 -0.1026865969       2 (A) B       2 (A) A     ->    3 (A) B       5 (A) A      
  0.1026865969       2 (A) B       2 (A) A     ->    5 (A) B       3 (A) A      
  0.0051149979       1 (A) A       2 (A) A     ->    5 (A) A       6 (A) A      
 -0.0051149979       1 (A) A       2 (A) A     ->    6 (A) A       5 (A) A      
 -0.0051149979       2 (A) A       1 (A) A     ->    5 (A) A       6 (A) A      
  0.0051149979       2 (A) A       1 (A) A     ->    6 (A) A       5 (A) A      
 -0.0051149979       1 (A) B       2 (A) B     ->    5 (A) B       6 (A) B      
  0.0051149979       1 (A) B       2 (A) B     ->    6 (A) B       5 (A) B      
  0.0051149979       2 (A) B       1 (A) B     ->    5 (A) B       6 (A) B      
 -0.0051149979       2 (A) B       1 (A) B     ->    6 (A) B       5 (A) B      
  0.0031241716       1 (A) A       2 (A) B     ->    5 (A) A       3 (A) B      
 -0.0031241716       2 (A) A       1 (A) B     ->    3 (A) A       5 (A) B      
 -0.0031241716       1 (A) A       2 (A) B     ->    3 (A) B       5 (A) A      
  0.0031241716       2 (A) A       1 (A) B     ->    5 (A) B       3 (A) A      
 -0.0031241716       2 (A) B       1 (A) A     ->    5 (A) A       3 (A) B      
  0.0031241716       1 (A) B       2 (A) A     ->    3 (A) A       5 (A) B      
 -0.0031241716       1 (A) B       2 (A) A     ->    5 (A) B       3 (A) A      
  0.0031241716       2 (A) B       1 (A) A     ->    3 (A) B       5 (A) A      
  0.0030909562       1 (A) A       2 (A) B     ->    3 (A) A       5 (A) B      
 -0.0030909562       2 (A) A       1 (A) B     ->    5 (A) A       3 (A) B      
 -0.0030909562       1 (A) A       2 (A) B     ->    5 (A) B       3 (A) A      
  0.0030909562       2 (A) A       1 (A) B     ->    3 (A) B       5 (A) A      
 -0.0030909562       2 (A) B       1 (A) A     ->    3 (A) A       5 (A) B      
  0.0030909562       1 (A) B       2 (A) A     ->    5 (A) A       3 (A) B      
 -0.0030909562       1 (A) B       2 (A) A     ->    3 (A) B       5 (A) A      
  0.0030909562       2 (A) B       1 (A) A     ->    5 (A) B       3 (A) A      
 -0.0018396361       1 (A) A       1 (A) B     ->    3 (A) A       5 (A) B      
  0.0018396361       1 (A) A       1 (A) B     ->    5 (A) A       3 (A) B      
  0.0018396361       1 (A) A       1 (A) B     ->    5 (A) B       3 (A) A      
 -0.0018396361       1 (A) A       1 (A) B     ->    3 (A) B       5 (A) A      
  0.0018396361       1 (A) B       1 (A) A     ->    3 (A) A       5 (A) B      
 -0.0018396361       1 (A) B       1 (A) A     ->    5 (A) A       3 (A) B      
  0.0018396361       1 (A) B       1 (A) A     ->    3 (A) B       5 (A) A      
 -0.0018396361       1 (A) B       1 (A) A     ->    5 (A) B       3 (A) A      
  0.0018018836       1 (A) A       2 (A) B     ->    6 (A) A       5 (A) B      
 -0.0018018836       2 (A) A       1 (A) B     ->    5 (A) A       6 (A) B      
 -0.0018018836       1 (A) A       2 (A) B     ->    5 (A) B       6 (A) A      
  0.0018018836       2 (A) A       1 (A) B     ->    6 (A) B       5 (A) A      
 -0.0018018836       2 (A) B       1 (A) A     ->    6 (A) A       5 (A) B      
  0.0018018836       1 (A) B       2 (A) A     ->    5 (A) A       6 (A) B      
 -0.0018018836       1 (A) B       2 (A) A     ->    6 (A) B       5 (A) A      
  0.0018018836       2 (A) B       1 (A) A     ->    5 (A) B       6 (A) A      
 -0.0014343243       1 (A) A       1 (A) B     ->    5 (A) A       6 (A) B      
  0.0014343243       1 (A) A       1 (A) B     ->    6 (A) A       5 (A) B      
  0.0014343243       1 (A) A       1 (A) B     ->    6 (A) B       5 (A) A      
 -0.0014343243       1 (A) A       1 (A) B     ->    5 (A) B       6 (A) A      
  0.0014343243       1 (A) B       1 (A) A     ->    5 (A) A       6 (A) B      
 -0.0014343243       1 (A) B       1 (A) A     ->    6 (A) A       5 (A) B      
  0.0014343243       1 (A) B       1 (A) A     ->    5 (A) B       6 (A) A      
 -0.0014343243       1 (A) B       1 (A) A     ->    6 (A) B       5 (A) A      
 -0.0010614707       1 (A) A       2 (A) B     ->    5 (A) A       6 (A) B      
  0.0010614707       2 (A) A       1 (A) B     ->    6 (A) A       5 (A) B      
  0.0010614707       1 (A) A       2 (A) B     ->    6 (A) B       5 (A) A      
 -0.0010614707       2 (A) A       1 (A) B     ->    5 (A) B       6 (A) A      
  0.0010614707       2 (A) B       1 (A) A     ->    5 (A) A       6 (A) B      
 -0.0010614707       1 (A) B       2 (A) A     ->    6 (A) A       5 (A) B      
  0.0010614707       1 (A) B       2 (A) A     ->    5 (A) B       6 (A) A      
 -0.0010614707       2 (A) B       1 (A) A     ->    6 (A) B       5 (A) A      
  0.0009199698       1 (A) A       2 (A) A     ->    3 (A) A       5 (A) A      
 -0.0009199698       1 (A) A       2 (A) A     ->    5 (A) A       3 (A) A      
 -0.0009199698       2 (A) A       1 (A) A     ->    3 (A) A       5 (A) A      
  0.0009199698       2 (A) A       1 (A) A     ->    5 (A) A       3 (A) A      
 -0.0009199698       1 (A) B       2 (A) B     ->    3 (A) B       5 (A) B      
  0.0009199698       1 (A) B       2 (A) B     ->    5 (A) B       3 (A) B      
  0.0009199698       2 (A) B       1 (A) B     ->    3 (A) B       5 (A) B      
 -0.0009199698       2 (A) B       1 (A) B     ->    5 (A) B       3 (A) B      

              Summary of significant orbitals:

               Number  Type             Irrep      Energy
               1       Occ  Alpha       1 (A)     -2.3468
               2       Occ  Alpha       2 (A)     -0.2936
               1       Occ  Beta        1 (A)     -2.3468
               2       Occ  Beta        2 (A)     -0.2936
               3       Vir  Alpha       3 (A)      0.0790
               5       Vir  Alpha       5 (A)      0.1637
               6       Vir  Alpha       6 (A)      0.5743
               3       Vir  Beta        3 (A)      0.0790
               5       Vir  Beta        5 (A)      0.1637
               6       Vir  Beta        6 (A)      0.5743


 EOMEE transition 3/A
 Total energy = -7.71278063 a.u.  Excitation energy = 4.61430046 eV.
 R0^2 = 0.0000  R1^2 = 0.9340  R2^2 = 0.0660  Res^2 = 3.65e-07
 Conv-d = yes

 Amplitude    Transitions between orbitals
 -0.6833731906       2 (A) A                   ->    4 (A) A                    
  0.6833731906       2 (A) B                   ->    4 (A) B                    
  0.0014272401       1 (A) A                   ->    4 (A) A                    
 -0.0014272401       1 (A) B                   ->    4 (A) B                    
  0.1496608468       2 (A) A       2 (A) B     ->    4 (A) A       6 (A) B      
 -0.1496608468       2 (A) A       2 (A) B     ->    6 (A) A       4 (A) B      
 -0.1496608468       2 (A) A       2 (A) B     ->    6 (A) B       4 (A) A      
  0.1496608468       2 (A) A       2 (A) B     ->    4 (A) B       6 (A) A      
 -0.1496608468       2 (A) B       2 (A) A     ->    4 (A) A       6 (A) B      
  0.1496608468       2 (A) B       2 (A) A     ->    6 (A) A       4 (A) B      
 -0.1496608468       2 (A) B       2 (A) A     ->    4 (A) B       6 (A) A      
  0.1496608468       2 (A) B       2 (A) A     ->    6 (A) B       4 (A) A      
  0.1026865969       2 (A) A       2 (A) B     ->    3 (A) A       4 (A) B      
 -0.1026865969       2 (A) A       2 (A) B     ->    4 (A) A       3 (A) B      
 -0.1026865969       2 (A) A       2 (A) B     ->    4 (A) B       3 (A) A      
  0.1026865969       2 (A) A       2 (A) B     ->    3 (A) B       4 (A) A      
 -0.1026865969       2 (A) B       2 (A) A     ->    3 (A) A       4 (A) B      
  0.1026865969       2 (A) B       2 (A) A     ->    4 (A) A       3 (A) B      
 -0.1026865969       2 (A) B       2 (A) A     ->    3 (A) B       4 (A) A      
  0.1026865969       2 (A) B       2 (A) A     ->    4 (A) B       3 (A) A      
  0.0051149979       1 (A) A       2 (A) A     ->    4 (A) A       6 (A) A      
 -0.0051149979       1 (A) A       2 (A) A     ->    6 (A) A       4 (A) A      
 -0.0051149979       2 (A) A       1 (A) A     ->    4 (A) A       6 (A) A      
  0.0051149979       2 (A) A       1 (A) A     ->    6 (A) A       4 (A) A      
 -0.0051149979       1 (A) B       2 (A) B     ->    4 (A) B       6 (A) B      
  0.0051149979       1 (A) B       2 (A) B     ->    6 (A) B       4 (A) B      
  0.0051149979       2 (A) B       1 (A) B     ->    4 (A) B       6 (A) B      
 -0.0051149979       2 (A) B       1 (A) B     ->    6 (A) B       4 (A) B      
  0.0031241716       1 (A) A       2 (A) B     ->    4 (A) A       3 (A) B      
 -0.0031241716       2 (A) A       1 (A) B     ->    3 (A) A       4 (A) B      
 -0.0031241716       1 (A) A       2 (A) B     ->    3 (A) B       4 (A) A      
  0.0031241716       2 (A) A       1 (A) B     ->    4 (A) B       3 (A) A      
 -0.0031241716       2 (A) B       1 (A) A     ->    4 (A) A       3 (A) B      
  0.0031241716       1 (A) B       2 (A) A     ->    3 (A) A       4 (A) B      
 -0.0031241716       1 (A) B       2 (A) A     ->    4 (A) B       3 (A) A      
  0.0031241716       2 (A) B       1 (A) A     ->    3 (A) B       4 (A) A      
  0.0030909562       1 (A) A       2 (A) B     ->    3 (A) A       4 (A) B      
 -0.0030909562       2 (A) A       1 (A) B     ->    4 (A) A       3 (A) B      
 -0.0030909562       1 (A) A       2 (A) B     ->    4 (A) B       3 (A) A      
  0.0030909562       2 (A) A       1 (A) B     ->    3 (A) B       4 (A) A      
 -0.0030909562       2 (A) B       1 (A) A     ->    3 (A) A       4 (A) B      
  0.0030909562       1 (A) B       2 (A) A     ->    4 (A) A       3 (A) B      
 -0.0030909562       1 (A) B       2 (A) A     ->    3 (A) B       4 (A) A      
  0.0030909562       2 (A) B       1 (A) A     ->    4 (A) B       3 (A) A      
 -0.0018396361       1 (A) A       1 (A) B     ->    3 (A) A       4 (A) B      
  0.0018396361       1 (A) A       1 (A) B     ->    4 (A) A       3 (A) B      
  0.0018396361       1 (A) A       1 (A) B     ->    4 (A) B       3 (A) A      
 -0.0018396361       1 (A) A       1 (A) B     ->    3 (A) B       4 (A) A      
  0.0018396361       1 (A) B       1 (A) A     ->    3 (A) A       4 (A) B      
 -0.0018396361       1 (A) B       1 (A) A     ->    4 (A) A       3 (A) B      
  0.0018396361       1 (A) B       1 (A) A     ->    3 (A) B       4 (A) A      
 -0.0018396361       1 (A) B       1 (A) A     ->    4 (A) B       3 (A) A      
  0.0018018836       1 (A) A       2 (A) B     ->    6 (A) A       4 (A) B      
 -0.0018018836       2 (A) A       1 (A) B     ->    4 (A) A       6 (A) B      
 -0.0018018836       1 (A) A       2 (A) B     ->    4 (A) B       6 (A) A      
  0.0018018836       2 (A) A       1 (A) B     ->    6 (A) B       4 (A) A      
 -0.0018018836       2 (A) B       1 (A) A     ->    6 (A) A       4 (A) B      
  0.0018018836       1 (A) B       2 (A) A     ->    4 (A) A       6 (A) B      
 -0.0018018836       1 (A) B       2 (A) A     ->    6 (A) B       4 (A) A      
  0.0018018836       2 (A) B       1 (A) A     ->    4 (A) B       6 (A) A      
 -0.0014343243       1 (A) A       1 (A) B     ->    4 (A) A       6 (A) B      
  0.0014343243       1 (A) A       1 (A) B     ->    6 (A) A       4 (A) B      
  0.0014343243       1 (A) A       1 (A) B     ->    6 (A) B       4 (A) A      
 -0.0014343243       1 (A) A       1 (A) B     ->    4 (A) B       6 (A) A      
  0.0014343243       1 (A) B       1 (A) A     ->    4 (A) A       6 (A) B      
 -0.0014343243       1 (A) B       1 (A) A     ->    6 (A) A       4 (A) B      
  0.0014343243       1 (A) B       1 (A) A     ->    4 (A) B       6 (A) A      
 -0.0014343243       1 (A) B       1 (A) A     ->    6 (A) B       4 (A) A      
 -0.0010614707       1 (A) A       2 (A) B     ->    4 (A) A       6 (A) B      
  0.0010614707       2 (A) A       1 (A) B     ->    6 (A) A       4 (A) B      
  0.0010614707       1 (A) A       2 (A) B     ->    6 (A) B       4 (A) A      
 -0.0010614707       2 (A) A       1 (A) B     ->    4 (A) B       6 (A) A      
  0.0010614707       2 (A) B       1 (A) A     ->    4 (A) A       6 (A) B      
 -0.0010614707       1 (A) B       2 (A) A     ->    6 (A) A       4 (A) B      
  0.0010614707       1 (A) B       2 (A) A     ->    4 (A) B       6 (A) A      
 -0.0010614707       2 (A) B       1 (A) A     ->    6 (A) B       4 (A) A      
  0.0009199698       1 (A) A       2 (A) A     ->    3 (A) A       4 (A) A      
 -0.0009199698       1 (A) A       2 (A) A     ->    4 (A) A       3 (A) A      
 -0.0009199698       2 (A) A       1 (A) A     ->    3 (A) A       4 (A) A      
  0.0009199698       2 (A) A       1 (A) A     ->    4 (A) A       3 (A) A      
 -0.0009199698       1 (A) B       2 (A) B     ->    3 (A) B       4 (A) B      
  0.0009199698       1 (A) B       2 (A) B     ->    4 (A) B       3 (A) B      
  0.0009199698       2 (A) B       1 (A) B     ->    3 (A) B       4 (A) B      
 -0.0009199698       2 (A) B       1 (A) B     ->    4 (A) B       3 (A) B      

              Summary of significant orbitals:

               Number  Type             Irrep      Energy
               1       Occ  Alpha       1 (A)     -2.3468
               2       Occ  Alpha       2 (A)     -0.2936
               1       Occ  Beta        1 (A)     -2.3468
               2       Occ  Beta        2 (A)     -0.2936
               3       Vir  Alpha       3 (A)      0.0790
               4       Vir  Alpha       4 (A)      0.1637
               6       Vir  Alpha       6 (A)      0.5743
               3       Vir  Beta        3 (A)      0.0790
               4       Vir  Beta        4 (A)      0.1637
               6       Vir  Beta        6 (A)      0.5743


 EEs and amplitudes of EOMEE has be exported to fchk file
Running a double precision version
      EOM-CCSD/MP2 left amplitudes will be solved using Davidson.
        Amplitudes will be solved using MOM  algorithm.
     Hard-coded thresholds: 
     LinDepThresh=1.00e-15  NormThresh=1.00e-06  ReorthogonThresh=1.00e-02

      Roots     MaxVec    MaxIter   Precond   Conv      Shift    
      3         120       60        1         1.00e-05  0.00e+00  
 ------------------------------------------------------------------------------
      Iter ConvRoots NVecs ResNorm Current eigenvalues (eV)
 ------------------------------------------------------------------------------
      0    0      3     1.99e-04   3.3137   4.6143   4.6143   
      1    0      6     1.09e-04   3.3137   4.6143   4.6143   
      2    3      9     6.12e-06   3.3137*  4.6143*  4.6143*  

     Davidson procedure converged

biorthogonolize_left_to_right(): degenerate block detected, ndeg=2

 Excited state properties for  EOMEE-CCSD transition 1/A
 Dipole moment (a.u.): 1.586353 (X 0.000000, Y 0.000000, Z 1.586353)
 R-squared (a.u.): 23.484055 (XX 4.946387, YY 4.946387, ZZ 13.591282)
 Gauge origin (a.u.): (0.000000, 0.000000, 0.000000)
 Angular momentum (a.u.) against gauge origin: 
 (X 0.000000i, Y 0.000000i, Z 0.000000i)
 Traces of the OPDMs: Tr(AA) 2.000000, Tr(BB) 2.000000

 Excited state properties for  EOMEE-CCSD transition 2/A
 Dipole moment (a.u.): 0.153486 (X 0.000000, Y 0.000000, Z 0.153486)
 R-squared (a.u.): 21.068935 (XX 6.018060, YY 6.018069, ZZ 9.032805)
 Gauge origin (a.u.): (0.000000, 0.000000, 0.000000)
 Angular momentum (a.u.) against gauge origin: 
 (X 0.000000i, Y 0.000000i, Z 0.000000i)
 Traces of the OPDMs: Tr(AA) 2.000000, Tr(BB) 2.000000

 Excited state properties for  EOMEE-CCSD transition 3/A
 Dipole moment (a.u.): 0.153486 (X 0.000000, Y 0.000000, Z 0.153486)
 R-squared (a.u.): 21.068935 (XX 6.018069, YY 6.018060, ZZ 9.032805)
 Gauge origin (a.u.): (0.000000, 0.000000, 0.000000)
 Angular momentum (a.u.) against gauge origin: 
 (X 0.000000i, Y 0.000000i, Z 0.000000i)
 Traces of the OPDMs: Tr(AA) 2.000000, Tr(BB) 2.000000

 EOMEE-CCSD calculation:   CPU 2.28 s  wall 1.58 s

 Total ccman2 time:   CPU 3.30 s  wall 2.07 s


 --------------------------------------------------------------

                    Orbital Energies (a.u.)
 --------------------------------------------------------------

 Alpha MOs
 -- Occupied --
 -2.3468  -0.2936
 -- Virtual --
  0.0790   0.1637   0.1637   0.5743
 --------------------------------------------------------------

          Ground-State Mulliken Net Atomic Charges

     Atom                 Charge (a.u.)
  ----------------------------------------
      1 Li                   -0.021346
      2 H                     0.021346
  ----------------------------------------
  Sum of atomic charges =     0.000000

 -----------------------------------------------------------------
                    Cartesian Multipole Moments
 -----------------------------------------------------------------
    Charge (ESU x 10^10)
                 0.0000
    Dipole Moment (Debye)
         X       0.0000      Y      -0.0000      Z      -4.6335
       Tot       4.6335
    Quadrupole Moments (Debye-Ang)
        XX      -5.4355     XY      -0.0000     YY      -5.4355
        XZ      -0.0000     YZ      -0.0000     ZZ      -5.0095
    Octopole Moments (Debye-Ang^2)
       XXX       0.0000    XXY      -0.0000    XYY       0.0000
       YYY      -0.0000    XXZ      -3.1820    XYZ       0.0000
       YYZ      -3.1820    XZZ       0.0000    YZZ      -0.0000
       ZZZ      -9.2970
    Hexadecapole Moments (Debye-Ang^3)
      XXXX     -13.3043   XXXY      -0.0000   XXYY      -4.4348
      XYYY      -0.0000   YYYY     -13.3043   XXXZ      -0.0000
      XXYZ      -0.0000   XYYZ      -0.0000   YYYZ      -0.0000
      XXZZ      -5.8687   XYZZ      -0.0000   YYZZ      -5.8687
      XZZZ      -0.0000   YZZZ      -0.0000   ZZZZ     -21.9348
 -----------------------------------------------------------------
 Total job time:  4.49s(wall), 5.54s(cpu) 
 Thu Aug 11 11:27:48 2022

        *************************************************************
        *                                                           *
        *  Thank you very much for using Q-Chem.  Have a nice day.  *
        *                                                           *
        *************************************************************


