Jobname.Temp
SP        R                             STO-3G              
Number of atoms                            I                4
Charge                                     I                0
Multiplicity                               I                1
Number of electrons                        I                4
Number of alpha electrons                  I                2
Number of beta electrons                   I                2
Atomic numbers                             I   N=           4
           1           1           1           1
Current cartesian coordinates              R   N=          12
  1.84248297E+00 -1.41729459E+00 -2.25639087E-16  1.84248297E+00  1.41729459E+00
  5.48391761E-16 -1.84248297E+00 -1.41729459E+00 -5.48391761E-16 -1.84248297E+00
  1.41729459E+00  2.25639087E-16
Nuclear charges                            R   N=           4
  1.00000000E+00  1.00000000E+00  1.00000000E+00  1.00000000E+00
Number of basis functions                  I                4
Number of contracted shells                I                4
Number of primitive shells                 I               12
Highest angular momentum                   I                0
Largest degree of contraction              I                3
Shell types                                I   N=           4
           0           0           0           0
Number of primitives per shell             I   N=           4
           3           3           3           3
Shell to atom map                          I   N=           4
           1           2           3           4
Primitive exponents                        R   N=          12
  3.42525091E+00  6.23913730E-01  1.68855400E-01  3.42525091E+00  6.23913730E-01
  1.68855400E-01  3.42525091E+00  6.23913730E-01  1.68855400E-01  3.42525091E+00
  6.23913730E-01  1.68855400E-01
Contraction coefficients                   R   N=          12
  1.54328971E-01  5.35328142E-01  4.44634542E-01  1.54328971E-01  5.35328142E-01
  4.44634542E-01  1.54328971E-01  5.35328142E-01  4.44634542E-01  1.54328971E-01
  5.35328142E-01  4.44634542E-01
Coordinates of each shell                  R   N=          12
  1.84248297E+00 -1.41729459E+00 -2.25639087E-16  1.84248297E+00  1.41729459E+00
  5.48391761E-16 -1.84248297E+00 -1.41729459E+00 -5.48391761E-16 -1.84248297E+00
  1.41729459E+00  2.25639087E-16
Overlap Matrix                             R   N=          10
  1.00000000E+00  2.56786336E-01  1.00000000E+00  1.29340163E-01  5.33388620E-02
  1.00000000E+00  5.33388620E-02  1.29340163E-01  2.56786336E-01  1.00000000E+00
Core Hamiltonian Matrix                    R   N=          10
 -1.30427016E+00 -4.52483078E-01 -1.30427016E+00 -2.29391742E-01 -1.03107985E-01
 -1.30427016E+00 -1.03107985E-01 -2.29391742E-01 -4.52483078E-01 -1.30427016E+00
Orbital Coefficients CCMAN2 Alpha          R   N=          16
 -4.16744038E-01 -4.16744038E-01 -4.16744038E-01 -4.16744038E-01 -4.82443176E-01
 -4.82443176E-01  4.82443176E-01  4.82443176E-01  6.12121963E-01 -6.12121963E-01
 -6.12121963E-01  6.12121963E-01 -5.52422127E-01  5.52422127E-01 -5.52422127E-01
  5.52422127E-01
Orbital Coefficients CCMAN2 Beta           R   N=          16
 -4.82443176E-01 -4.82443176E-01  4.82443176E-01  4.82443176E-01  6.12121963E-01
 -6.12121963E-01 -6.12121963E-01  6.12121963E-01 -5.52422127E-01  5.52422127E-01
 -5.52422127E-01  5.52422127E-01 -4.16744038E-01 -4.16744038E-01 -4.16744038E-01
 -4.16744038E-01
EOMEE transition Ag Excitation Energies    R   N=           1
  1.77299072E-01
Number of Active Occ                       I                4
Number of Active Vir                       I                4
Alpha Amplitudes                           R   N=           0
Alpha J Indexes                            I   N=           2
           0           0
Alpha I Indexes                            I   N=           0
EOMEE transition B1g Excitation Energies   R   N=           1
  4.17153414E-01
Number of Active Occ                       I                4
Number of Active Vir                       I                4
Alpha Amplitudes                           R   N=           2
 -7.05823283E-01 -7.05823283E-01
Alpha J Indexes                            I   N=           2
           0           2
Alpha I Indexes                            I   N=           2
           5          15
EOMEE transition B2u Excitation Energies   R   N=           1
  5.24405880E-01
Number of Active Occ                       I                4
Number of Active Vir                       I                4
Alpha Amplitudes                           R   N=           4
 -5.27746596E-01 -4.70620367E-01 -5.27746596E-01 -4.70620367E-01
Alpha J Indexes                            I   N=           2
           0           4
Alpha I Indexes                            I   N=           4
           1           4          11          14
EOMEE transition B3u Excitation Energies   R   N=           1
  6.14795349E-01
Number of Active Occ                       I                4
Number of Active Vir                       I                4
Alpha Amplitudes                           R   N=           0
Alpha J Indexes                            I   N=           2
           0           0
Alpha I Indexes                            I   N=           0
EOMEE transition Ag Excitation Energies    R   N=           1
  6.78976193E-01
Number of Active Occ                       I                4
Number of Active Vir                       I                4
Alpha Amplitudes                           R   N=           0
Alpha J Indexes                            I   N=           2
           0           0
Alpha I Indexes                            I   N=           0
EOMEE transition B1g Excitation Energies   R   N=           1
  6.99364973E-02
Number of Active Occ                       I                4
Number of Active Vir                       I                4
Alpha Amplitudes                           R   N=           4
  3.45640294E-01 -6.16873397E-01 -3.45640294E-01  6.16873397E-01
Alpha J Indexes                            I   N=           2
           0           4
Alpha I Indexes                            I   N=           4
           0           5          10          15
EOMEE transition B2u Excitation Energies   R   N=           1
  1.16375717E-01
Number of Active Occ                       I                4
Number of Active Vir                       I                4
Alpha Amplitudes                           R   N=           4
  4.89930936E-01 -5.09870256E-01 -4.89930936E-01  5.09870256E-01
Alpha J Indexes                            I   N=           2
           0           4
Alpha I Indexes                            I   N=           4
           1           4          11          14
EOMEE transition B3u Excitation Energies   R   N=           1
  1.90295583E-01
Number of Active Occ                       I                4
Number of Active Vir                       I                4
Alpha Amplitudes                           R   N=           0
Alpha J Indexes                            I   N=           2
           0           0
Alpha I Indexes                            I   N=           0
Number of independent functions            I                4
Alpha MO coefficients                      R   N=          16
 -4.16744038E-01 -4.16744038E-01 -4.16744038E-01 -4.16744038E-01 -4.82443176E-01
 -4.82443176E-01  4.82443176E-01  4.82443176E-01 -5.52422127E-01  5.52422127E-01
 -5.52422127E-01  5.52422127E-01  6.12121963E-01 -6.12121963E-01 -6.12121963E-01
  6.12121963E-01
Alpha Orbital Energies                     R   N=           4
 -4.13419294E-01 -2.80824395E-01  1.69978444E-01  2.92719441E-01
Total SCF Density                          R   N=          10
  8.82876152E-01  5.04466373E-01  8.82876152E-01 -5.71876330E-02 -9.41071031E-02
  8.82876152E-01 -9.41071031E-02 -5.71876330E-02  5.04466373E-01  8.82876152E-01
Pure Switching                             I                1
Dipole_Data                                R   N=           3
 -4.52110012E-15 -8.87136470E-15 -2.76090708E-30
Quadrupole_Data                            R   N=           6
 -3.84493643E+00  5.19444788E-15 -2.56943908E+00 -1.66559954E-17  2.96367280E-16
 -3.65476984E+00
Octapole_Data                              R   N=          10
 -8.85491538E-15 -9.83816378E-15 -3.48033070E-15 -9.05782750E-15 -3.07827455E-30
 -1.26566214E-30 -1.93228349E-30 -7.90778839E-16 -1.43967106E-15 -1.32474373E-30
Hexadecapole_Data                          R   N=          15
 -2.44460849E+01  1.22690977E-14 -5.33258979E+00  4.56935111E-15 -1.28430494E+01
 -9.46796177E-16 -2.14952878E-16 -2.25223377E-16 -1.24507663E-15 -4.54540785E+00
  1.45275084E-15 -2.76114564E+00 -9.29135842E-16 -1.43508404E-15 -3.02799559E+00
