                  Welcome to Q-Chem
     A Quantum Leap Into The Future Of Chemistry


 Q-Chem 5.4 (devel), Q-Chem, Inc., Pleasanton, CA (2021)

 E. Epifanovsky,  A. T. B. Gilbert,  Xintian Feng,  Joonho Lee,  Yuezhi Mao,  
 N. Mardirossian,  P. Pokhilko,  A. White,  M. Wormit,  M. P. Coons,  
 A. L. Dempwolff,  Zhengting Gan,  D. Hait,  P. R. Horn,  L. D. Jacobson,  
 I. Kaliman,  J. Kussmann,  A. W. Lange,  Ka Un Lao,  D. S. Levine,  Jie Liu,  
 S. C. McKenzie,  A. F. Morrison,  K. Nanda,  F. Plasser,  D. R. Rehn,  
 M. L. Vidal,  Zhi-Qiang You,  Ying Zhu,  B. Alam,  B. Albrecht,  
 A. Aldossary,  E. Alguire,  J. H. Andersen,  D. Barton,  K. Begam,  A. Behn,  
 Y. A. Bernard,  E. J. Berquist,  H. Burton,  A. Carreras,  K. Carter-Fenk,  
 R. Chakraborty,  A. D. Chien,  K. D. Closser,  V. Cofer-Shabica,  
 S. Dasgupta,  Jia Deng,  M. de Wergifosse,  M. Diedenhofen,  Hainam Do,  
 S. Ehlert,  Po-Tung Fang,  S. Fatehi,  Qingguo Feng,  T. Friedhoff,  
 J. Gayvert,  Qinghui Ge,  G. Gidofalvi,  M. Goldey,  J. Gomes,  
 C. Gonzalez-Espinoza,  S. Gulania,  A. Gunina,  M. W. D. Hanson-Heine,  
 P. H. P. Harbach,  A. W. Hauser,  M. F. Herbst,  M. Hernandez Vera,  
 M. Hodecker,  Z. C. Holden,  S. Houck,  Xunkun Huang,  Kerwin Hui,  
 B. C. Huynh,  M. Ivanov,  Hyunjun Ji,  Hanjie Jiang,  B. Kaduk,  S. Kaehler,  
 K. Khistyaev,  Jaehoon Kim,  P. Klunzinger,  Z. Koczor-Benda,  
 Joong Hoon Koh,  D. Kosenkov,  L. Koulias,  T. Kowalczyk,  C. M. Krauter,  
 K. Kue,  A. Kunitsa,  T. Kus,  A. Landau,  K. V. Lawler,  D. Lefrancois,  
 S. Lehtola,  Rain Li,  Yi-Pei Li,  Jiashu Liang,  M. Liebenthal,  
 Hung-Hsuan Lin,  You-Sheng Lin,  Fenglai Liu,  Kuan-Yu Liu,  
 M. Loipersberger,  A. Luenser,  A. Manjanath,  P. Manohar,  E. Mansoor,  
 S. F. Manzer,  Shan-Ping Mao,  A. V. Marenich,  T. Markovich,  S. Mason,  
 S. A. Maurer,  P. F. McLaughlin,  M. F. S. J. Menger,  J.-M. Mewes,  
 S. A. Mewes,  P. Morgante,  J. W. Mullinax,  K. J. Oosterbaan,  G. Paran,  
 Alexander C. Paul,  Suranjan K. Paul,  F. Pavosevic,  Zheng Pei,  S. Prager,  
 E. I. Proynov,  E. Ramos,  B. Rana,  A. E. Rask,  A. Rettig,  R. M. Richard,  
 F. Rob,  E. Rossomme,  T. Scheele,  M. Scheurer,  M. Schneider,  
 N. Sergueev,  S. M. Sharada,  W. Skomorowski,  D. W. Small,  C. J. Stein,  
 Yu-Chuan Su,  E. J. Sundstrom,  Zhen Tao,  J. Thirman,  T. Tsuchimochi,  
 N. M. Tubman,  S. P. Veccham,  O. Vydrov,  J. Wenzel,  J. Witte,  A. Yamada,  
 Kun Yao,  S. Yeganeh,  S. R. Yost,  A. Zech,  Igor Ying Zhang,  Xing Zhang,  
 Yu Zhang,  D. Zuev,  A. Aspuru-Guzik,  A. T. Bell,  N. A. Besley,  
 K. B. Bravaya,  B. R. Brooks,  D. Casanova,  Jeng-Da Chai,  S. Coriani,  
 C. J. Cramer,  A. E. DePrince, III,  R. A. DiStasio Jr.,  A. Dreuw,  
 B. D. Dunietz,  T. R. Furlani,  W. A. Goddard III,  S. Grimme,  
 S. Hammes-Schiffer,  T. Head-Gordon,  W. J. Hehre,  Chao-Ping Hsu,  
 T.-C. Jagau,  Yousung Jung,  A. Klamt,  Jing Kong,  D. S. Lambrecht,  
 WanZhen Liang,  N. J. Mayhall,  C. W. McCurdy,  J. B. Neaton,  
 C. Ochsenfeld,  J. A. Parkhill,  R. Peverati,  V. A. Rassolov,  Yihan Shao,  
 L. V. Slipchenko,  T. Stauch,  R. P. Steele,  J. E. Subotnik,  
 A. J. W. Thom,  A. Tkatchenko,  D. G. Truhlar,  T. Van Voorhis,  
 T. A. Wesolowski,  K. B. Whaley,  H. L. Woodcock III,  P. M. Zimmerman,  
 S. Faraji,  P. M. W. Gill,  M. Head-Gordon,  J. M. Herbert,  A. I. Krylov

 Additional authors for Version 5.4.1: 
 S. Kotaru,  Shaozhi Li,  Xiangyuan Li,  F. Matz,  A. Molle,  Haisheng Ren,  
 Yingli Su,  Hung-Yi Tsai,  C. Utku,  Fang Wang

 Contributors to earlier versions of Q-Chem not listed above: 
 R. D. Adamson,  B. Austin,  R. Baer,  J. Baker,  G. J. O. Beran,  
 K. Brandhorst,  S. T. Brown,  E. F. C. Byrd,  A. K. Chakraborty,  
 G. K. L. Chan,  Chun-Min Chang,  Yunqing Chen,  C.-L. Cheng,  
 Siu Hung Chien,  D. M. Chipman,  D. L. Crittenden,  H. Dachsel,  
 R. J. Doerksen,  A. D. Dutoi,  R. G. Edgar,  J. Fosso-Tande,  
 L. Fusti-Molnar,  D. Ghosh,  A. Ghysels,  A. Golubeva-Zadorozhnaya,  
 J. Gonthier,  M. S. Gordon,  S. R. Gwaltney,  G. Hawkins,  J. E. Herr,  
 A. Heyden,  S. Hirata,  E. G. Hohenstein,  G. Kedziora,  F. J. Keil,  
 C. Kelley,  Jihan Kim,  R. A. King,  R. Z. Khaliullin,  P. P. Korambath,  
 W. Kurlancheek,  A. Laurent,  A. M. Lee,  M. S. Lee,  S. V. Levchenko,  
 Ching Yeh Lin,  D. Liotard,  E. Livshits,  R. C. Lochan,  I. Lotan,  
 L. A. Martinez-Martinez,  P. E. Maslen,  N. Nair,  D. P. O'Neill,  
 D. Neuhauser,  E. Neuscamman,  C. M. Oana,  R. Olivares-Amaya,  R. Olson,  
 T. M. Perrine,  B. Peters,  P. A. Pieniazek,  A. Prociuk,  Y. M. Rhee,  
 J. Ritchie,  M. A. Rohrdanz,  E. Rosta,  N. J. Russ,  H. F. Schaefer III,  
 M. W. Schmidt,  N. E. Schultz,  S. Sharma,  N. Shenvi,  C. D. Sherrill,  
 A. C. Simmonett,  A. Sodt,  T. Stein,  D. Stuck,  K. S. Thanthiriwatte,  
 V. Vanovschi,  L. Vogt,  Tao Wang,  A. Warshel,  M. A. Watson,  
 C. F. Williams,  Q. Wu,  X. Xu,  Jun Yang,  W. Zhang,  Yan Zhao

 Please cite Q-Chem as follows:
 Y. Shao et al., Mol. Phys. 113, 184-215 (2015)
 DOI: 10.1080/00268976.2014.952696

 Q-Chem 5.4.1 for Intel X86 EM64T Linux

 Parts of Q-Chem use Armadillo 9.900.5 (Nocturnal Misbehaviour).
 http://arma.sourceforge.net/

 Q-Chem begins on Thu Aug 11 11:23:09 2022  

orc34
 Host: 0

     Scratch files written to /scratch/yongbin/qchem48323//
 Processing $rem in /home/users/yongbin/software/yongbin_quantum/config/preferences:
 Processing $rem in /home/users/yongbin/.qchemrc:
 Core orbitals will be frozen

 Checking the input file for inconsistencies... 	...done.

--------------------------------------------------------------
User input:
--------------------------------------------------------------
$comment
Hydrogen molecule
$end

$molecule
0 1
H 0.0 0.0 0.0
H 0.0 0.0 1.3
$end

$rem
   print_qis = true
   BASIS                = 6-31g 
   SYMMETRY             = false
   CC_SYMMETRY          = false
   METHOD               = eom-ccsd
   EE_SINGLETS          = [3]  ! Compute two EOM-EE singlet excited states
   EE_TRIPLETS          = [3]  ! Compute two EOM-EE triplet excited states
   CC_REF_PROP          = true ! Compute ground state properties
   CC_EOM_PROP          = true ! Compute excited state properties
!   CC_OSFNO             = true
   GUI                  = 2
$end
--------------------------------------------------------------
 ----------------------------------------------------------------
             Standard Nuclear Orientation (Angstroms)
    I     Atom           X                Y                Z
 ----------------------------------------------------------------
    1      H       0.0000000000     0.0000000000    -0.6500000000
    2      H       0.0000000000     0.0000000000     0.6500000000
 ----------------------------------------------------------------
 Molecular Point Group                 D*h   NOp =***
 Largest Abelian Subgroup              D2h   NOp =  1
 Nuclear Repulsion Energy =           0.40705939 hartrees
 There are        1 alpha and        1 beta electrons
 Requested basis set is 6-31G
 There are 4 shells and 4 basis functions
 Total memory of 2000 MB is distributed as follows: 
   MEM_STATIC is set to 192 MB
   QALLOC/CCMAN JOB total memory use is  1808 MB
 Warning: actual memory use might exceed 2000 MB

 Total QAlloc Memory Limit   2000 MB
 Mega-Array Size       188 MB
 MEM_STATIC part       192 MB

                       Distance Matrix (Angstroms)
             H (  1)
   H (  2)  1.300000

 A cutoff of  1.0D-14 yielded     10 shell pairs
 There are        10 function pairs
 Smallest overlap matrix eigenvalue = 1.98E-01

 Scale SEOQF with 1.000000e+00/1.000000e+00/1.000000e+00

 Standard Electronic Orientation quadrupole field applied
 Nucleus-field energy     =    -0.0000000009 hartrees
 Guess from superposition of atomic densities
 Warning:  Energy on first SCF cycle will be non-variational
 SAD guess density has 2.000000 electrons

 -----------------------------------------------------------------------
  General SCF calculation program by
  Eric Jon Sundstrom, Paul Horn, Yuezhi Mao, Dmitri Zuev, Alec White,
  David Stuck, Shaama M.S., Shane Yost, Joonho Lee, David Small,
  Daniel Levine, Susi Lehtola, Hugh Burton, Evgeny Epifanovsky,
  Bang C. Huynh
 -----------------------------------------------------------------------
 Hartree-Fock
 using 16 threads for integral computing
 -------------------------------------------------------
 OpenMP Integral computing Module                
 Release: version 1.0, May 2013, Q-Chem Inc. Pittsburgh 
 -------------------------------------------------------
 A restricted SCF calculation will be
 performed using DIIS
 SCF converges when DIIS error is below 1.0e-08
 ---------------------------------------
  Cycle       Energy         DIIS error
 ---------------------------------------
    1      -0.7519841751      3.79e-02  
    2      -1.0356924850      6.46e-03  
    3      -1.0358211749      1.24e-03  
    4      -1.0358261063      1.20e-07  
    5      -1.0358261063      2.20e-12  Convergence criterion met
 ---------------------------------------
 SCF time:   CPU 0.56s  wall 0.00s 
 SCF   energy in the final basis set =       -1.0358261063
 Total energy in the final basis set =       -1.0358261063


 ------------------------------------------------------------------------------

   CCMAN2: suite of methods based on coupled cluster
           and equation of motion theories.

   Components:
   * libvmm-1.3-trunk
     by Evgeny Epifanovsky, Ilya Kaliman.
   * libtensor-2.5-trunk
     by Evgeny Epifanovsky, Michael Wormit, Dmitry Zuev, Sam Manzer, 
        Ilya Kaliman.
   * libcc-2.5-trunk
     by Evgeny Epifanovsky, Arik Landau, Tomasz Kus, Kirill Khistyaev, 
        Dmitry Zuev, Prashant Manohar, Xintian Feng, Anna Krylov, 
        Matthew Goldey, Alec White, Thomas Jagau, Kaushik Nanda, 
        Anastasia Gunina, Alexander Kunitsa, Joonho Lee.

   CCMAN original authors:
   Anna I. Krylov, C. David Sherrill, Steven R. Gwaltney,
   Edward F. C. Byrd (2000)
   Sergey V. Levchenko, Lyudmila V. Slipchenko, Tao Wang,
   Ana-Maria C. Cristian (2003)
   Piotr A. Pieniazek, C. Melania Oana, Evgeny Epifanovsky (2007)
   Prashant Manohar (2009)

 ------------------------------------------------------------------------------


 Allocating and initializing 1808MB of RAM...
 Calculation will run on 16 cores.


 Occupation and symmetry of molecular orbitals

 Point group: C1 (1 irreducible representation).

                           A     All 
 -------------------------------------
 All molecular orbitals:
  - Alpha                  4     4   
  - Beta                   4     4   
 -------------------------------------
 Alpha orbitals:
  - Frozen occupied        0     0   
  - Active occupied        1     1   
  - Active virtual         3     3   
  - Frozen virtual         0     0   
 -------------------------------------
 Beta orbitals:
  - Frozen occupied        0     0   
  - Active occupied        1     1   
  - Active virtual         3     3   
  - Frozen virtual         0     0   
 -------------------------------------

 Import integrals:   CPU 0.00 s  wall 0.00 s

 Import integrals:   CPU 0.14 s  wall 0.04 s

 Run QIS:   CPU 0.00 s  wall 0.01 s

 MP2 amplitudes:   CPU 0.00 s  wall 0.00 s

Running a double precision version
           CCSD T amplitudes will be solved using DIIS.

           Start     Size      MaxIter   EConv     TConv     
           3         7         100       1.00e-06  1.00e-04  
 ------------------------------------------------------------------------------
           Energy (a.u.)   Ediff      Tdiff       Comment
 ------------------------------------------------------------------------------
            -1.06106461                           
     1      -1.07105063   9.99e-03   1.41e-01     
     2      -1.07583699   4.79e-03   6.09e-02     
     3      -1.07822314   2.39e-03   3.12e-02     
     4      -1.08063160   2.41e-03   3.15e-02     Switched to DIIS steps.
     5      -1.08059682   3.48e-05   3.88e-04     
     6      -1.08060772   1.09e-05   1.19e-04     
     7      -1.08060705   6.72e-07   1.28e-05     
 ------------------------------------------------------------------------------
            -1.08060705                           CCSD T converged.

End of double precision
 SCF energy                 = -1.03582611
 MP2 energy                 = -1.06106461
 CCSD correlation energy    = -0.04478094
 CCSD total energy          = -1.08060705

 CCSD  T1^2 = 0.0011  T2^2 = 0.0644  Leading amplitudes:

 Amplitude    Orbitals with energies
 -0.0231184904       1 (A) A                   ->    3 (A) A                    
                    -0.4684                          1.0198                     
 -0.0231184904       1 (A) B                   ->    3 (A) B                    
                    -0.4684                          1.0198                     

 Amplitude    Orbitals with energies
 -0.2326339702       1 (A) A       1 (A) B     ->    2 (A) A       2 (A) B      
                    -0.4684       -0.4684            0.0937        0.0937       
  0.2326339702       1 (A) A       1 (A) B     ->    2 (A) B       2 (A) A      
                    -0.4684       -0.4684            0.0937        0.0937       
  0.2326339702       1 (A) B       1 (A) A     ->    2 (A) A       2 (A) B      
                    -0.4684       -0.4684            0.0937        0.0937       
 -0.2326339702       1 (A) B       1 (A) A     ->    2 (A) B       2 (A) A      
                    -0.4684       -0.4684            0.0937        0.0937       

 Computing CCSD intermediates for later calculations in double precision
 Finished.

Running a double precision version
           CCSD Lambda amplitudes will be solved using DIIS.
           Start     Size      MaxIter   EConv     LConv     
           3         7         100       1.00e-06  1.00e-04  
 ------------------------------------------------------------------------------
            Enorm      Ldiff       Comment
 ------------------------------------------------------------------------------
     1     1.75e-02   1.71e-02     
     2     7.35e-03   7.26e-03     
     3     3.61e-03   3.52e-03     
     4     1.62e-04   3.38e-03     Switched to DIIS steps.
     5     1.08e-05   9.70e-05     
     6     1.50e-06   6.30e-06     
     7     1.26e-07   4.47e-07     
 ------------------------------------------------------------------------------
                                   CCSD Lambda converged.

 Computing density matrices in double precision...
 Computing density matrices... Done.
 Reference state properties
 Dipole moment (a.u.): 0.000000 (X -0.000000, Y -0.000000, Z 0.000000)
 R-squared (a.u.): 8.100245 (XX 1.899955, YY 1.899955, ZZ 4.300334)
 Gauge origin (a.u.): (0.000000, 0.000000, 0.000000)
 Angular momentum (a.u.) against gauge origin: 
 (X 0.000000i, Y 0.000000i, Z 0.000000i)
 Traces of the OPDMs: Tr(AA) 1.000000, Tr(BB) 1.000000
 Density matrix was written to a file for further analysis.

 CCSD calculation:   CPU 0.55 s  wall 0.42 s

        Solving for EOMEE-CCSD A singlet states.

Running a double precision version
        EOMEE-CCSD/MP2 right amplitudes will be solved using Davidson.
        Amplitudes will be solved using standard  algorithm.
     Hard-coded thresholds: 
     LinDepThresh=1.00e-15  NormThresh=1.00e-06  ReorthogonThresh=1.00e-02

      Roots     MaxVec    MaxIter   Precond   Conv      Shift    
      3         120       60        1         1.00e-05  0.00e+00  
 ------------------------------------------------------------------------------
      Iter ConvRoots NVecs ResNorm Current eigenvalues (eV)
 ------------------------------------------------------------------------------
      0    0      3     6.30e-02   11.6495   33.0791   33.7150   
      1    2      6     1.49e-02   11.3843*  29.5114*  30.1271   
      2    2      7     4.12e-02   11.3843*  19.9361   29.5114*  
      3    2      8     1.49e-05   11.3843*  16.2869   29.5114*  
      4    3      9     8.28e-31   11.3843*  16.2876*  29.5114*  

     Davidson procedure converged

 EOMEE transition 1/A
 Total energy = -0.66224006 a.u.  Excitation energy = 11.38434464 eV.
 R0^2 = 0.0000  R1^2 = 0.9943  R2^2 = 0.0057  Res^2 = 5.49e-31
 Conv-d = yes

 Amplitude    Transitions between orbitals
  0.7049529718       1 (A) A                   ->    2 (A) A                    
  0.7049529718       1 (A) B                   ->    2 (A) B                    
 -0.0131307777       1 (A) A                   ->    4 (A) A                    
 -0.0131307777       1 (A) B                   ->    4 (A) B                    
  0.0480470703       1 (A) A       1 (A) B     ->    3 (A) A       4 (A) B      
  0.0480470703       1 (A) A       1 (A) B     ->    4 (A) A       3 (A) B      
 -0.0480470703       1 (A) A       1 (A) B     ->    4 (A) B       3 (A) A      
 -0.0480470703       1 (A) A       1 (A) B     ->    3 (A) B       4 (A) A      
 -0.0480470703       1 (A) B       1 (A) A     ->    3 (A) A       4 (A) B      
 -0.0480470703       1 (A) B       1 (A) A     ->    4 (A) A       3 (A) B      
  0.0480470703       1 (A) B       1 (A) A     ->    3 (A) B       4 (A) A      
  0.0480470703       1 (A) B       1 (A) A     ->    4 (A) B       3 (A) A      
  0.0236721196       1 (A) A       1 (A) B     ->    2 (A) A       3 (A) B      
  0.0236721196       1 (A) A       1 (A) B     ->    3 (A) A       2 (A) B      
 -0.0236721196       1 (A) A       1 (A) B     ->    3 (A) B       2 (A) A      
 -0.0236721196       1 (A) A       1 (A) B     ->    2 (A) B       3 (A) A      
 -0.0236721196       1 (A) B       1 (A) A     ->    2 (A) A       3 (A) B      
 -0.0236721196       1 (A) B       1 (A) A     ->    3 (A) A       2 (A) B      
  0.0236721196       1 (A) B       1 (A) A     ->    2 (A) B       3 (A) A      
  0.0236721196       1 (A) B       1 (A) A     ->    3 (A) B       2 (A) A      

              Summary of significant orbitals:

               Number  Type             Irrep      Energy
               1       Occ  Alpha       1 (A)     -0.4684
               1       Occ  Beta        1 (A)     -0.4684
               2       Vir  Alpha       2 (A)      0.0937
               3       Vir  Alpha       3 (A)      1.0198
               4       Vir  Alpha       4 (A)      1.0425
               2       Vir  Beta        2 (A)      0.0937
               3       Vir  Beta        3 (A)      1.0198
               4       Vir  Beta        4 (A)      1.0425


 EOMEE transition 2/A
 Total energy = -0.48204778 a.u.  Excitation energy = 16.28762603 eV.
 R0^2 = 0.0525  R1^2 = 0.0177  R2^2 = 0.9823  Res^2 = 7.18e-31
 Conv-d = yes

 Amplitude    Transitions between orbitals
  0.0940946677       1 (A) A                   ->    3 (A) A                    
  0.0940946677       1 (A) B                   ->    3 (A) B                    
  0.9783500291       1 (A) A       1 (A) B     ->    2 (A) A       2 (A) B      
 -0.9783500291       1 (A) A       1 (A) B     ->    2 (A) B       2 (A) A      
 -0.9783500291       1 (A) B       1 (A) A     ->    2 (A) A       2 (A) B      
  0.9783500291       1 (A) B       1 (A) A     ->    2 (A) B       2 (A) A      
  0.1071549008       1 (A) A       1 (A) B     ->    2 (A) A       4 (A) B      
  0.1071549008       1 (A) A       1 (A) B     ->    4 (A) A       2 (A) B      
 -0.1071549008       1 (A) A       1 (A) B     ->    4 (A) B       2 (A) A      
 -0.1071549008       1 (A) A       1 (A) B     ->    2 (A) B       4 (A) A      
 -0.1071549008       1 (A) B       1 (A) A     ->    2 (A) A       4 (A) B      
 -0.1071549008       1 (A) B       1 (A) A     ->    4 (A) A       2 (A) B      
  0.1071549008       1 (A) B       1 (A) A     ->    2 (A) B       4 (A) A      
  0.1071549008       1 (A) B       1 (A) A     ->    4 (A) B       2 (A) A      
 -0.0336163060       1 (A) A       1 (A) B     ->    3 (A) A       3 (A) B      
  0.0336163060       1 (A) A       1 (A) B     ->    3 (A) B       3 (A) A      
  0.0336163060       1 (A) B       1 (A) A     ->    3 (A) A       3 (A) B      
 -0.0336163060       1 (A) B       1 (A) A     ->    3 (A) B       3 (A) A      
 -0.0320812417       1 (A) A       1 (A) B     ->    4 (A) A       4 (A) B      
  0.0320812417       1 (A) A       1 (A) B     ->    4 (A) B       4 (A) A      
  0.0320812417       1 (A) B       1 (A) A     ->    4 (A) A       4 (A) B      
 -0.0320812417       1 (A) B       1 (A) A     ->    4 (A) B       4 (A) A      

              Summary of significant orbitals:

               Number  Type             Irrep      Energy
               1       Occ  Alpha       1 (A)     -0.4684
               1       Occ  Beta        1 (A)     -0.4684
               2       Vir  Alpha       2 (A)      0.0937
               3       Vir  Alpha       3 (A)      1.0198
               4       Vir  Alpha       4 (A)      1.0425
               2       Vir  Beta        2 (A)      0.0937
               3       Vir  Beta        3 (A)      1.0198
               4       Vir  Beta        4 (A)      1.0425


 EOMEE transition 3/A
 Total energy = 0.00391567 a.u.  Excitation energy = 29.51136398 eV.
 R0^2 = 0.0000  R1^2 = 0.7273  R2^2 = 0.2727  Res^2 = 1.22e-30
 Conv-d = yes

 Amplitude    Transitions between orbitals
  0.6030416344       1 (A) A                   ->    4 (A) A                    
  0.6030416344       1 (A) B                   ->    4 (A) B                    
  0.0035809811       1 (A) A                   ->    2 (A) A                    
  0.0035809811       1 (A) B                   ->    2 (A) B                    
  0.3624863919       1 (A) A       1 (A) B     ->    2 (A) A       3 (A) B      
  0.3624863919       1 (A) A       1 (A) B     ->    3 (A) A       2 (A) B      
 -0.3624863919       1 (A) A       1 (A) B     ->    3 (A) B       2 (A) A      
 -0.3624863919       1 (A) A       1 (A) B     ->    2 (A) B       3 (A) A      
 -0.3624863919       1 (A) B       1 (A) A     ->    2 (A) A       3 (A) B      
 -0.3624863919       1 (A) B       1 (A) A     ->    3 (A) A       2 (A) B      
  0.3624863919       1 (A) B       1 (A) A     ->    2 (A) B       3 (A) A      
  0.3624863919       1 (A) B       1 (A) A     ->    3 (A) B       2 (A) A      
  0.0702252051       1 (A) A       1 (A) B     ->    3 (A) A       4 (A) B      
  0.0702252051       1 (A) A       1 (A) B     ->    4 (A) A       3 (A) B      
 -0.0702252051       1 (A) A       1 (A) B     ->    4 (A) B       3 (A) A      
 -0.0702252051       1 (A) A       1 (A) B     ->    3 (A) B       4 (A) A      
 -0.0702252051       1 (A) B       1 (A) A     ->    3 (A) A       4 (A) B      
 -0.0702252051       1 (A) B       1 (A) A     ->    4 (A) A       3 (A) B      
  0.0702252051       1 (A) B       1 (A) A     ->    3 (A) B       4 (A) A      
  0.0702252051       1 (A) B       1 (A) A     ->    4 (A) B       3 (A) A      

              Summary of significant orbitals:

               Number  Type             Irrep      Energy
               1       Occ  Alpha       1 (A)     -0.4684
               1       Occ  Beta        1 (A)     -0.4684
               2       Vir  Alpha       2 (A)      0.0937
               3       Vir  Alpha       3 (A)      1.0198
               4       Vir  Alpha       4 (A)      1.0425
               2       Vir  Beta        2 (A)      0.0937
               3       Vir  Beta        3 (A)      1.0198
               4       Vir  Beta        4 (A)      1.0425


 EEs and amplitudes of EOMEE has be exported to fchk file
Running a double precision version
      EOM-CCSD/MP2 left amplitudes will be solved using Davidson.
        Amplitudes will be solved using MOM  algorithm.
     Hard-coded thresholds: 
     LinDepThresh=1.00e-15  NormThresh=1.00e-06  ReorthogonThresh=1.00e-02

      Roots     MaxVec    MaxIter   Precond   Conv      Shift    
      3         120       60        1         1.00e-05  0.00e+00  
 ------------------------------------------------------------------------------
      Iter ConvRoots NVecs ResNorm Current eigenvalues (eV)
 ------------------------------------------------------------------------------
      0    0      3     7.72e-04   11.3843   16.2876   29.5114   
      1    2      6     1.10e-05   11.3843*  16.2876   29.5114*  
      2    3      7     3.85e-07   11.3843*  16.2876*  29.5114*  

     Davidson procedure converged

 Excited state properties for  EOMEE-CCSD transition 1/A
 Dipole moment (a.u.): 0.000000 (X -0.000000, Y -0.000000, Z 0.000000)
 R-squared (a.u.): 11.223594 (XX 2.255045, YY 2.255045, ZZ 6.713504)
 Gauge origin (a.u.): (0.000000, 0.000000, 0.000000)
 Angular momentum (a.u.) against gauge origin: 
 (X 0.000000i, Y 0.000000i, Z 0.000000i)
 Traces of the OPDMs: Tr(AA) 1.000000, Tr(BB) 1.000000

 Excited state properties for  EOMEE-CCSD transition 2/A
 Dipole moment (a.u.): 0.000000 (X -0.000000, Y -0.000000, Z 0.000000)
 R-squared (a.u.): 12.157995 (XX 2.140874, YY 2.140874, ZZ 7.876247)
 Gauge origin (a.u.): (0.000000, 0.000000, 0.000000)
 Angular momentum (a.u.) against gauge origin: 
 (X 0.000000i, Y 0.000000i, Z 0.000000i)
 Traces of the OPDMs: Tr(AA) 1.000000, Tr(BB) 1.000000

 Excited state properties for  EOMEE-CCSD transition 3/A
 Dipole moment (a.u.): 0.000000 (X -0.000000, Y -0.000000, Z 0.000000)
 R-squared (a.u.): 10.963219 (XX 2.338180, YY 2.338180, ZZ 6.286858)
 Gauge origin (a.u.): (0.000000, 0.000000, 0.000000)
 Angular momentum (a.u.) against gauge origin: 
 (X 0.000000i, Y 0.000000i, Z 0.000000i)
 Traces of the OPDMs: Tr(AA) 1.000000, Tr(BB) 1.000000

        Solving for EOMEE-CCSD A triplet states.

Running a double precision version
        EOMEE-CCSD/MP2 right amplitudes will be solved using Davidson.
        Amplitudes will be solved using standard  algorithm.
     Hard-coded thresholds: 
     LinDepThresh=1.00e-15  NormThresh=1.00e-06  ReorthogonThresh=1.00e-02

      Roots     MaxVec    MaxIter   Precond   Conv      Shift    
      3         120       60        1         1.00e-05  0.00e+00  
 ------------------------------------------------------------------------------
      Iter ConvRoots NVecs ResNorm Current eigenvalues (eV)
 ------------------------------------------------------------------------------
      0    0      3     5.50e-03   4.1094   28.6704   29.1893   
      1    3      6     1.10e-30   4.0188*  28.0641*  28.6307*  

     Davidson procedure converged

 EOMEE transition 1/A
 Total energy = -0.93291781 a.u.  Excitation energy = 4.01882858 eV.
 R0^2 = 0.0000  R1^2 = 0.9982  R2^2 = 0.0018  Res^2 = 5.30e-33
 Conv-d = yes

 Amplitude    Transitions between orbitals
 -0.6996143684       1 (A) A                   ->    2 (A) A                    
  0.6996143684       1 (A) B                   ->    2 (A) B                    
 -0.0981436664       1 (A) A                   ->    4 (A) A                    
  0.0981436664       1 (A) B                   ->    4 (A) B                    
  0.0301245194       1 (A) A       1 (A) B     ->    2 (A) A       3 (A) B      
 -0.0301245194       1 (A) A       1 (A) B     ->    3 (A) A       2 (A) B      
 -0.0301245194       1 (A) A       1 (A) B     ->    3 (A) B       2 (A) A      
  0.0301245194       1 (A) A       1 (A) B     ->    2 (A) B       3 (A) A      
 -0.0301245194       1 (A) B       1 (A) A     ->    2 (A) A       3 (A) B      
  0.0301245194       1 (A) B       1 (A) A     ->    3 (A) A       2 (A) B      
 -0.0301245194       1 (A) B       1 (A) A     ->    2 (A) B       3 (A) A      
  0.0301245194       1 (A) B       1 (A) A     ->    3 (A) B       2 (A) A      
  0.0002638373       1 (A) A       1 (A) B     ->    3 (A) A       4 (A) B      
 -0.0002638373       1 (A) A       1 (A) B     ->    4 (A) A       3 (A) B      
 -0.0002638373       1 (A) A       1 (A) B     ->    4 (A) B       3 (A) A      
  0.0002638373       1 (A) A       1 (A) B     ->    3 (A) B       4 (A) A      
 -0.0002638373       1 (A) B       1 (A) A     ->    3 (A) A       4 (A) B      
  0.0002638373       1 (A) B       1 (A) A     ->    4 (A) A       3 (A) B      
 -0.0002638373       1 (A) B       1 (A) A     ->    3 (A) B       4 (A) A      
  0.0002638373       1 (A) B       1 (A) A     ->    4 (A) B       3 (A) A      

              Summary of significant orbitals:

               Number  Type             Irrep      Energy
               1       Occ  Alpha       1 (A)     -0.4684
               1       Occ  Beta        1 (A)     -0.4684
               2       Vir  Alpha       2 (A)      0.0937
               3       Vir  Alpha       3 (A)      1.0198
               4       Vir  Alpha       4 (A)      1.0425
               2       Vir  Beta        2 (A)      0.0937
               3       Vir  Beta        3 (A)      1.0198
               4       Vir  Beta        4 (A)      1.0425


 EOMEE transition 2/A
 Total energy = -0.04927140 a.u.  Excitation energy = 28.06407021 eV.
 R0^2 = 0.0000  R1^2 = 0.9299  R2^2 = 0.0701  Res^2 = 6.96e-31
 Conv-d = yes

 Amplitude    Transitions between orbitals
 -0.6818755149       1 (A) A                   ->    3 (A) A                    
  0.6818755149       1 (A) B                   ->    3 (A) B                    
  0.1872051873       1 (A) A       1 (A) B     ->    2 (A) A       4 (A) B      
 -0.1872051873       1 (A) A       1 (A) B     ->    4 (A) A       2 (A) B      
 -0.1872051873       1 (A) A       1 (A) B     ->    4 (A) B       2 (A) A      
  0.1872051873       1 (A) A       1 (A) B     ->    2 (A) B       4 (A) A      
 -0.1872051873       1 (A) B       1 (A) A     ->    2 (A) A       4 (A) B      
  0.1872051873       1 (A) B       1 (A) A     ->    4 (A) A       2 (A) B      
 -0.1872051873       1 (A) B       1 (A) A     ->    2 (A) B       4 (A) A      
  0.1872051873       1 (A) B       1 (A) A     ->    4 (A) B       2 (A) A      

              Summary of significant orbitals:

               Number  Type             Irrep      Energy
               1       Occ  Alpha       1 (A)     -0.4684
               1       Occ  Beta        1 (A)     -0.4684
               2       Vir  Alpha       2 (A)      0.0937
               3       Vir  Alpha       3 (A)      1.0198
               4       Vir  Alpha       4 (A)      1.0425
               2       Vir  Beta        2 (A)      0.0937
               3       Vir  Beta        3 (A)      1.0198
               4       Vir  Beta        4 (A)      1.0425


 EOMEE transition 3/A
 Total energy = -0.02844926 a.u.  Excitation energy = 28.63066942 eV.
 R0^2 = 0.0000  R1^2 = 0.9411  R2^2 = 0.0589  Res^2 = 2.61e-30
 Conv-d = yes

 Amplitude    Transitions between orbitals
  0.6777427955       1 (A) A                   ->    4 (A) A                    
 -0.6777427955       1 (A) B                   ->    4 (A) B                    
 -0.1058131886       1 (A) A                   ->    2 (A) A                    
  0.1058131886       1 (A) B                   ->    2 (A) B                    
 -0.1615054305       1 (A) A       1 (A) B     ->    2 (A) A       3 (A) B      
  0.1615054305       1 (A) A       1 (A) B     ->    3 (A) A       2 (A) B      
  0.1615054305       1 (A) A       1 (A) B     ->    3 (A) B       2 (A) A      
 -0.1615054305       1 (A) A       1 (A) B     ->    2 (A) B       3 (A) A      
  0.1615054305       1 (A) B       1 (A) A     ->    2 (A) A       3 (A) B      
 -0.1615054305       1 (A) B       1 (A) A     ->    3 (A) A       2 (A) B      
  0.1615054305       1 (A) B       1 (A) A     ->    2 (A) B       3 (A) A      
 -0.1615054305       1 (A) B       1 (A) A     ->    3 (A) B       2 (A) A      
  0.0581744629       1 (A) A       1 (A) B     ->    3 (A) A       4 (A) B      
 -0.0581744629       1 (A) A       1 (A) B     ->    4 (A) A       3 (A) B      
 -0.0581744629       1 (A) A       1 (A) B     ->    4 (A) B       3 (A) A      
  0.0581744629       1 (A) A       1 (A) B     ->    3 (A) B       4 (A) A      
 -0.0581744629       1 (A) B       1 (A) A     ->    3 (A) A       4 (A) B      
  0.0581744629       1 (A) B       1 (A) A     ->    4 (A) A       3 (A) B      
 -0.0581744629       1 (A) B       1 (A) A     ->    3 (A) B       4 (A) A      
  0.0581744629       1 (A) B       1 (A) A     ->    4 (A) B       3 (A) A      

              Summary of significant orbitals:

               Number  Type             Irrep      Energy
               1       Occ  Alpha       1 (A)     -0.4684
               1       Occ  Beta        1 (A)     -0.4684
               2       Vir  Alpha       2 (A)      0.0937
               3       Vir  Alpha       3 (A)      1.0198
               4       Vir  Alpha       4 (A)      1.0425
               2       Vir  Beta        2 (A)      0.0937
               3       Vir  Beta        3 (A)      1.0198
               4       Vir  Beta        4 (A)      1.0425


 EEs and amplitudes of EOMEE has be exported to fchk file
Running a double precision version
      EOM-CCSD/MP2 left amplitudes will be solved using Davidson.
        Amplitudes will be solved using MOM  algorithm.
     Hard-coded thresholds: 
     LinDepThresh=1.00e-15  NormThresh=1.00e-06  ReorthogonThresh=1.00e-02

      Roots     MaxVec    MaxIter   Precond   Conv      Shift    
      3         120       60        1         1.00e-05  0.00e+00  
 ------------------------------------------------------------------------------
      Iter ConvRoots NVecs ResNorm Current eigenvalues (eV)
 ------------------------------------------------------------------------------
      0    1      3     4.21e-04   4.0188   28.0641*  28.6307   
      1    3      5     4.80e-31   4.0188*  28.0641*  28.6307*  

     Davidson procedure converged

 Excited state properties for  EOMEE-CCSD transition 1/A
 Dipole moment (a.u.): 0.000000 (X -0.000000, Y -0.000000, Z 0.000000)
 R-squared (a.u.): 9.549342 (XX 1.837685, YY 1.837685, ZZ 5.873973)
 Gauge origin (a.u.): (0.000000, 0.000000, 0.000000)
 Angular momentum (a.u.) against gauge origin: 
 (X 0.000000i, Y 0.000000i, Z 0.000000i)
 Traces of the OPDMs: Tr(AA) 1.000000, Tr(BB) 1.000000

 Excited state properties for  EOMEE-CCSD transition 2/A
 Dipole moment (a.u.): 0.000000 (X -0.000000, Y -0.000000, Z 0.000000)
 R-squared (a.u.): 10.166993 (XX 2.577902, YY 2.577902, ZZ 5.011189)
 Gauge origin (a.u.): (0.000000, 0.000000, 0.000000)
 Angular momentum (a.u.) against gauge origin: 
 (X 0.000000i, Y 0.000000i, Z 0.000000i)
 Traces of the OPDMs: Tr(AA) 1.000000, Tr(BB) 1.000000

 Excited state properties for  EOMEE-CCSD transition 3/A
 Dipole moment (a.u.): 0.000000 (X -0.000000, Y -0.000000, Z 0.000000)
 R-squared (a.u.): 11.111289 (XX 2.210623, YY 2.210623, ZZ 6.690043)
 Gauge origin (a.u.): (0.000000, 0.000000, 0.000000)
 Angular momentum (a.u.) against gauge origin: 
 (X 0.000000i, Y 0.000000i, Z 0.000000i)
 Traces of the OPDMs: Tr(AA) 1.000000, Tr(BB) 1.000000

 EOMEE-CCSD calculation:   CPU 1.29 s  wall 1.01 s

 Total ccman2 time:   CPU 2.15 s  wall 1.57 s


 --------------------------------------------------------------

                    Orbital Energies (a.u.)
 --------------------------------------------------------------

 Alpha MOs
 -- Occupied --
 -0.4684
 -- Virtual --
  0.0937   1.0198   1.0425
 --------------------------------------------------------------

          Ground-State Mulliken Net Atomic Charges

     Atom                 Charge (a.u.)
  ----------------------------------------
      1 H                    -0.000000
      2 H                     0.000000
  ----------------------------------------
  Sum of atomic charges =     0.000000

 -----------------------------------------------------------------
                    Cartesian Multipole Moments
 -----------------------------------------------------------------
    Charge (ESU x 10^10)
                 0.0000
    Dipole Moment (Debye)
         X       0.0000      Y       0.0000      Z       0.0000
       Tot       0.0000
    Quadrupole Moments (Debye-Ang)
        XX      -2.5555     XY       0.0000     YY      -2.5555
        XZ       0.0000     YZ       0.0000     ZZ      -1.7254
    Octopole Moments (Debye-Ang^2)
       XXX       0.0000    XXY       0.0000    XYY       0.0000
       YYY       0.0000    XXZ       0.0000    XYZ       0.0000
       YYZ       0.0000    XZZ       0.0000    YZZ       0.0000
       ZZZ       0.0000
    Hexadecapole Moments (Debye-Ang^3)
      XXXX      -2.7092   XXXY       0.0000   XXYY      -0.9031
      XYYY       0.0000   YYYY      -2.7092   XXXZ       0.0000
      XXYZ       0.0000   XYYZ       0.0000   YYYZ       0.0000
      XXZZ      -1.6992   XYZZ       0.0000   YYZZ      -1.6992
      XZZZ       0.0000   YZZZ       0.0000   ZZZZ      -7.0988
 -----------------------------------------------------------------
 Total job time:  2.76s(wall), 3.83s(cpu) 
 Thu Aug 11 11:23:12 2022

        *************************************************************
        *                                                           *
        *  Thank you very much for using Q-Chem.  Have a nice day.  *
        *                                                           *
        *************************************************************


