Jobname.Temp
SP        R                             6-31G               
Number of atoms                            I                2
Charge                                     I                0
Multiplicity                               I                1
Number of electrons                        I                2
Number of alpha electrons                  I                1
Number of beta electrons                   I                1
Atomic numbers                             I   N=           2
           1           1
Current cartesian coordinates              R   N=           6
  0.00000000E+00  0.00000000E+00 -1.22832198E+00  0.00000000E+00  0.00000000E+00
  1.22832198E+00
Nuclear charges                            R   N=           2
  1.00000000E+00  1.00000000E+00
Number of basis functions                  I                4
Number of contracted shells                I                4
Number of primitive shells                 I                8
Highest angular momentum                   I                0
Largest degree of contraction              I                3
Shell types                                I   N=           4
           0           0           0           0
Number of primitives per shell             I   N=           4
           3           1           3           1
Shell to atom map                          I   N=           4
           1           1           2           2
Primitive exponents                        R   N=           8
  1.87311370E+01  2.82539370E+00  6.40121700E-01  1.61277800E-01  1.87311370E+01
  2.82539370E+00  6.40121700E-01  1.61277800E-01
Contraction coefficients                   R   N=           8
  3.34945995E-02  2.34726947E-01  8.13757318E-01  1.00000000E+00  3.34945995E-02
  2.34726947E-01  8.13757318E-01  1.00000000E+00
Coordinates of each shell                  R   N=          12
  0.00000000E+00  0.00000000E+00 -1.22832198E+00  0.00000000E+00  0.00000000E+00
 -1.22832198E+00  0.00000000E+00  0.00000000E+00  1.22832198E+00  0.00000000E+00
  0.00000000E+00  1.22832198E+00
Overlap Matrix                             R   N=          10
  1.00000000E+00  6.58292049E-01  1.00000000E+00  1.07450262E-01  2.97950190E-01
  1.00000000E+00  2.97950190E-01  6.14673658E-01  6.58292049E-01  1.00000000E+00
Core Hamiltonian Matrix                    R   N=          10
 -6.64589087E-01 -7.50095402E-01 -7.86260372E-01 -2.21314900E-01 -4.06434223E-01
 -6.64589087E-01 -4.06434223E-01 -5.76257444E-01 -7.50095402E-01 -7.86260372E-01
Orbital Coefficients CCMAN2 Alpha          R   N=          16
 -2.52673782E-01 -3.87263075E-01 -2.52673782E-01 -3.87263075E-01 -2.01634007E-01
 -9.24535697E-01  2.01634007E-01  9.24535697E-01  9.27428610E-01 -6.95518325E-01
  9.27428610E-01 -6.95518325E-01 -9.26993249E-01  1.10900111E+00  9.26993249E-01
 -1.10900111E+00
Orbital Coefficients CCMAN2 Beta           R   N=          16
 -2.01634007E-01 -9.24535697E-01  2.01634007E-01  9.24535697E-01  9.27428610E-01
 -6.95518325E-01  9.27428610E-01 -6.95518325E-01 -9.26993249E-01  1.10900111E+00
  9.26993249E-01 -1.10900111E+00 -2.52673782E-01 -3.87263075E-01 -2.52673782E-01
 -3.87263075E-01
EOMEE transition A Excitation Energies     R   N=           3
  4.18366985E-01  5.98559268E-01  1.08452272E+00
Number of Active Occ                       I                2
Number of Active Vir                       I                6
Alpha Amplitudes                           R   N=           4
  7.04952972E-01  7.04952972E-01  6.03041634E-01  6.03041634E-01
Alpha J Indexes                            I   N=           4
           0           2           2           4
Alpha I Indexes                            I   N=           4
           0           9           2          11
EOMEE transition A Excitation Energies     R   N=           3
  1.47689239E-01  1.03133565E+00  1.05215779E+00
Number of Active Occ                       I                2
Number of Active Vir                       I                6
Alpha Amplitudes                           R   N=           8
 -6.99614368E-01  6.99614368E-01 -6.81875515E-01  6.81875515E-01 -1.05813189E-01
  6.77742796E-01  1.05813189E-01 -6.77742796E-01
Alpha J Indexes                            I   N=           4
           0           2           4           8
Alpha I Indexes                            I   N=           8
           0           9           1          10           0           2
           9          11
Number of independent functions            I                4
Alpha MO coefficients                      R   N=          16
 -2.52673782E-01 -3.87263075E-01 -2.52673782E-01 -3.87263075E-01 -2.01634007E-01
 -9.24535697E-01  2.01634007E-01  9.24535697E-01  9.27428610E-01 -6.95518325E-01
  9.27428610E-01 -6.95518325E-01 -9.26993249E-01  1.10900111E+00  9.26993249E-01
 -1.10900111E+00
Alpha Orbital Energies                     R   N=           4
 -4.68413831E-01  9.36704794E-02  1.01976233E+00  1.04245464E+00
Total SCF Density                          R   N=          10
  1.66821374E-01  2.21154153E-01  2.98865907E-01  1.16193626E-01  1.59366781E-01
  1.66821374E-01  1.59366781E-01  2.20756030E-01  2.21154153E-01  2.98865907E-01
Pure Switching                             I                1
Dipole_Data                                R   N=           3
  0.00000000E+00  0.00000000E+00  7.97188240E-15
Quadrupole_Data                            R   N=           6
 -2.55550479E+00  0.00000000E+00 -2.55550479E+00  0.00000000E+00  0.00000000E+00
 -1.72538905E+00
Octapole_Data                              R   N=          10
  0.00000000E+00  0.00000000E+00  0.00000000E+00  0.00000000E+00  4.22764468E-15
  0.00000000E+00  4.22764468E-15  0.00000000E+00  0.00000000E+00  1.65549824E-14
Hexadecapole_Data                          R   N=          15
 -2.70917186E+00  0.00000000E+00 -9.03057286E-01  0.00000000E+00 -2.70917186E+00
  0.00000000E+00  0.00000000E+00  0.00000000E+00  0.00000000E+00 -1.69923964E+00
  0.00000000E+00 -1.69923964E+00  0.00000000E+00  0.00000000E+00 -7.09876669E+00
