                  Welcome to Q-Chem
     A Quantum Leap Into The Future Of Chemistry


 Q-Chem 5.4 (devel), Q-Chem, Inc., Pleasanton, CA (2021)

 E. Epifanovsky,  A. T. B. Gilbert,  Xintian Feng,  Joonho Lee,  Yuezhi Mao,  
 N. Mardirossian,  P. Pokhilko,  A. White,  M. Wormit,  M. P. Coons,  
 A. L. Dempwolff,  Zhengting Gan,  D. Hait,  P. R. Horn,  L. D. Jacobson,  
 I. Kaliman,  J. Kussmann,  A. W. Lange,  Ka Un Lao,  D. S. Levine,  Jie Liu,  
 S. C. McKenzie,  A. F. Morrison,  K. Nanda,  F. Plasser,  D. R. Rehn,  
 M. L. Vidal,  Zhi-Qiang You,  Ying Zhu,  B. Alam,  B. Albrecht,  
 A. Aldossary,  E. Alguire,  J. H. Andersen,  D. Barton,  K. Begam,  A. Behn,  
 Y. A. Bernard,  E. J. Berquist,  H. Burton,  A. Carreras,  K. Carter-Fenk,  
 R. Chakraborty,  A. D. Chien,  K. D. Closser,  V. Cofer-Shabica,  
 S. Dasgupta,  Jia Deng,  M. de Wergifosse,  M. Diedenhofen,  Hainam Do,  
 S. Ehlert,  Po-Tung Fang,  S. Fatehi,  Qingguo Feng,  T. Friedhoff,  
 J. Gayvert,  Qinghui Ge,  G. Gidofalvi,  M. Goldey,  J. Gomes,  
 C. Gonzalez-Espinoza,  S. Gulania,  A. Gunina,  M. W. D. Hanson-Heine,  
 P. H. P. Harbach,  A. W. Hauser,  M. F. Herbst,  M. Hernandez Vera,  
 M. Hodecker,  Z. C. Holden,  S. Houck,  Xunkun Huang,  Kerwin Hui,  
 B. C. Huynh,  M. Ivanov,  Hyunjun Ji,  Hanjie Jiang,  B. Kaduk,  S. Kaehler,  
 K. Khistyaev,  Jaehoon Kim,  P. Klunzinger,  Z. Koczor-Benda,  
 Joong Hoon Koh,  D. Kosenkov,  L. Koulias,  T. Kowalczyk,  C. M. Krauter,  
 K. Kue,  A. Kunitsa,  T. Kus,  A. Landau,  K. V. Lawler,  D. Lefrancois,  
 S. Lehtola,  Rain Li,  Yi-Pei Li,  Jiashu Liang,  M. Liebenthal,  
 Hung-Hsuan Lin,  You-Sheng Lin,  Fenglai Liu,  Kuan-Yu Liu,  
 M. Loipersberger,  A. Luenser,  A. Manjanath,  P. Manohar,  E. Mansoor,  
 S. F. Manzer,  Shan-Ping Mao,  A. V. Marenich,  T. Markovich,  S. Mason,  
 S. A. Maurer,  P. F. McLaughlin,  M. F. S. J. Menger,  J.-M. Mewes,  
 S. A. Mewes,  P. Morgante,  J. W. Mullinax,  K. J. Oosterbaan,  G. Paran,  
 Alexander C. Paul,  Suranjan K. Paul,  F. Pavosevic,  Zheng Pei,  S. Prager,  
 E. I. Proynov,  E. Ramos,  B. Rana,  A. E. Rask,  A. Rettig,  R. M. Richard,  
 F. Rob,  E. Rossomme,  T. Scheele,  M. Scheurer,  M. Schneider,  
 N. Sergueev,  S. M. Sharada,  W. Skomorowski,  D. W. Small,  C. J. Stein,  
 Yu-Chuan Su,  E. J. Sundstrom,  Zhen Tao,  J. Thirman,  T. Tsuchimochi,  
 N. M. Tubman,  S. P. Veccham,  O. Vydrov,  J. Wenzel,  J. Witte,  A. Yamada,  
 Kun Yao,  S. Yeganeh,  S. R. Yost,  A. Zech,  Igor Ying Zhang,  Xing Zhang,  
 Yu Zhang,  D. Zuev,  A. Aspuru-Guzik,  A. T. Bell,  N. A. Besley,  
 K. B. Bravaya,  B. R. Brooks,  D. Casanova,  Jeng-Da Chai,  S. Coriani,  
 C. J. Cramer,  A. E. DePrince, III,  R. A. DiStasio Jr.,  A. Dreuw,  
 B. D. Dunietz,  T. R. Furlani,  W. A. Goddard III,  S. Grimme,  
 S. Hammes-Schiffer,  T. Head-Gordon,  W. J. Hehre,  Chao-Ping Hsu,  
 T.-C. Jagau,  Yousung Jung,  A. Klamt,  Jing Kong,  D. S. Lambrecht,  
 WanZhen Liang,  N. J. Mayhall,  C. W. McCurdy,  J. B. Neaton,  
 C. Ochsenfeld,  J. A. Parkhill,  R. Peverati,  V. A. Rassolov,  Yihan Shao,  
 L. V. Slipchenko,  T. Stauch,  R. P. Steele,  J. E. Subotnik,  
 A. J. W. Thom,  A. Tkatchenko,  D. G. Truhlar,  T. Van Voorhis,  
 T. A. Wesolowski,  K. B. Whaley,  H. L. Woodcock III,  P. M. Zimmerman,  
 S. Faraji,  P. M. W. Gill,  M. Head-Gordon,  J. M. Herbert,  A. I. Krylov

 Additional authors for Version 5.4.1: 
 S. Kotaru,  Shaozhi Li,  Xiangyuan Li,  F. Matz,  A. Molle,  Haisheng Ren,  
 Yingli Su,  Hung-Yi Tsai,  C. Utku,  Fang Wang

 Contributors to earlier versions of Q-Chem not listed above: 
 R. D. Adamson,  B. Austin,  R. Baer,  J. Baker,  G. J. O. Beran,  
 K. Brandhorst,  S. T. Brown,  E. F. C. Byrd,  A. K. Chakraborty,  
 G. K. L. Chan,  Chun-Min Chang,  Yunqing Chen,  C.-L. Cheng,  
 Siu Hung Chien,  D. M. Chipman,  D. L. Crittenden,  H. Dachsel,  
 R. J. Doerksen,  A. D. Dutoi,  R. G. Edgar,  J. Fosso-Tande,  
 L. Fusti-Molnar,  D. Ghosh,  A. Ghysels,  A. Golubeva-Zadorozhnaya,  
 J. Gonthier,  M. S. Gordon,  S. R. Gwaltney,  G. Hawkins,  J. E. Herr,  
 A. Heyden,  S. Hirata,  E. G. Hohenstein,  G. Kedziora,  F. J. Keil,  
 C. Kelley,  Jihan Kim,  R. A. King,  R. Z. Khaliullin,  P. P. Korambath,  
 W. Kurlancheek,  A. Laurent,  A. M. Lee,  M. S. Lee,  S. V. Levchenko,  
 Ching Yeh Lin,  D. Liotard,  E. Livshits,  R. C. Lochan,  I. Lotan,  
 L. A. Martinez-Martinez,  P. E. Maslen,  N. Nair,  D. P. O'Neill,  
 D. Neuhauser,  E. Neuscamman,  C. M. Oana,  R. Olivares-Amaya,  R. Olson,  
 T. M. Perrine,  B. Peters,  P. A. Pieniazek,  A. Prociuk,  Y. M. Rhee,  
 J. Ritchie,  M. A. Rohrdanz,  E. Rosta,  N. J. Russ,  H. F. Schaefer III,  
 M. W. Schmidt,  N. E. Schultz,  S. Sharma,  N. Shenvi,  C. D. Sherrill,  
 A. C. Simmonett,  A. Sodt,  T. Stein,  D. Stuck,  K. S. Thanthiriwatte,  
 V. Vanovschi,  L. Vogt,  Tao Wang,  A. Warshel,  M. A. Watson,  
 C. F. Williams,  Q. Wu,  X. Xu,  Jun Yang,  W. Zhang,  Yan Zhao

 Please cite Q-Chem as follows:
 Y. Shao et al., Mol. Phys. 113, 184-215 (2015)
 DOI: 10.1080/00268976.2014.952696

 Q-Chem 5.4.1 for Intel X86 EM64T Linux

 Parts of Q-Chem use Armadillo 9.900.5 (Nocturnal Misbehaviour).
 http://arma.sourceforge.net/

 Q-Chem begins on Thu Aug 11 11:18:17 2022  

orc23
 Host: 0

     Scratch files written to /scratch/yongbin/qchem8664//
 Processing $rem in /home/users/yongbin/software/yongbin_quantum/config/preferences:
 Processing $rem in /home/users/yongbin/.qchemrc:
 Core orbitals will be frozen

 Checking the input file for inconsistencies... 	...done.

--------------------------------------------------------------
User input:
--------------------------------------------------------------
$comment
Hydrogen molecule
$end

$molecule
0 1
H 0.0 0.0 0.0
H 0.0 0.0 0.4
$end

$rem
   print_qis = true
   BASIS                = 6-31g 
   SYMMETRY             = false
   CC_SYMMETRY          = false
   METHOD               = eom-ccsd
   EE_SINGLETS          = [3]  ! Compute two EOM-EE singlet excited states
   EE_TRIPLETS          = [3]  ! Compute two EOM-EE triplet excited states
   CC_REF_PROP          = true ! Compute ground state properties
   CC_EOM_PROP          = true ! Compute excited state properties
!   CC_OSFNO             = true
   GUI                  = 2
$end
--------------------------------------------------------------
 ----------------------------------------------------------------
             Standard Nuclear Orientation (Angstroms)
    I     Atom           X                Y                Z
 ----------------------------------------------------------------
    1      H       0.0000000000     0.0000000000    -0.2000000000
    2      H       0.0000000000     0.0000000000     0.2000000000
 ----------------------------------------------------------------
 Molecular Point Group                 D*h   NOp =***
 Largest Abelian Subgroup              D2h   NOp =  1
 Nuclear Repulsion Energy =           1.32294303 hartrees
 There are        1 alpha and        1 beta electrons
 Requested basis set is 6-31G
 There are 4 shells and 4 basis functions
 Total memory of 2000 MB is distributed as follows: 
   MEM_STATIC is set to 192 MB
   QALLOC/CCMAN JOB total memory use is  1808 MB
 Warning: actual memory use might exceed 2000 MB

 Total QAlloc Memory Limit   2000 MB
 Mega-Array Size       188 MB
 MEM_STATIC part       192 MB

                       Distance Matrix (Angstroms)
             H (  1)
   H (  2)  0.400000

 A cutoff of  1.0D-14 yielded     10 shell pairs
 There are        10 function pairs
 Smallest overlap matrix eigenvalue = 3.29E-02

 Scale SEOQF with 1.000000e+00/1.000000e+00/1.000000e+00

 Standard Electronic Orientation quadrupole field applied
 Guess from superposition of atomic densities
 Warning:  Energy on first SCF cycle will be non-variational
 SAD guess density has 2.000000 electrons

 -----------------------------------------------------------------------
  General SCF calculation program by
  Eric Jon Sundstrom, Paul Horn, Yuezhi Mao, Dmitri Zuev, Alec White,
  David Stuck, Shaama M.S., Shane Yost, Joonho Lee, David Small,
  Daniel Levine, Susi Lehtola, Hugh Burton, Evgeny Epifanovsky,
  Bang C. Huynh
 -----------------------------------------------------------------------
 Hartree-Fock
 using 12 threads for integral computing
 -------------------------------------------------------
 OpenMP Integral computing Module                
 Release: version 1.0, May 2013, Q-Chem Inc. Pittsburgh 
 -------------------------------------------------------
 A restricted SCF calculation will be
 performed using DIIS
 SCF converges when DIIS error is below 1.0e-08
 ---------------------------------------
  Cycle       Energy         DIIS error
 ---------------------------------------
    1      -0.6529447777      1.95e-01  
    2      -0.9304641223      2.72e-02  
    3      -0.9330035214      4.42e-04  
    4      -0.9330042008      1.66e-06  
    5      -0.9330042008      6.27e-09  Convergence criterion met
 ---------------------------------------
 SCF time:   CPU 0.49s  wall 0.00s 
 SCF   energy in the final basis set =       -0.9330042008
 Total energy in the final basis set =       -0.9330042008


 ------------------------------------------------------------------------------

   CCMAN2: suite of methods based on coupled cluster
           and equation of motion theories.

   Components:
   * libvmm-1.3-trunk
     by Evgeny Epifanovsky, Ilya Kaliman.
   * libtensor-2.5-trunk
     by Evgeny Epifanovsky, Michael Wormit, Dmitry Zuev, Sam Manzer, 
        Ilya Kaliman.
   * libcc-2.5-trunk
     by Evgeny Epifanovsky, Arik Landau, Tomasz Kus, Kirill Khistyaev, 
        Dmitry Zuev, Prashant Manohar, Xintian Feng, Anna Krylov, 
        Matthew Goldey, Alec White, Thomas Jagau, Kaushik Nanda, 
        Anastasia Gunina, Alexander Kunitsa, Joonho Lee.

   CCMAN original authors:
   Anna I. Krylov, C. David Sherrill, Steven R. Gwaltney,
   Edward F. C. Byrd (2000)
   Sergey V. Levchenko, Lyudmila V. Slipchenko, Tao Wang,
   Ana-Maria C. Cristian (2003)
   Piotr A. Pieniazek, C. Melania Oana, Evgeny Epifanovsky (2007)
   Prashant Manohar (2009)

 ------------------------------------------------------------------------------


 Allocating and initializing 1808MB of RAM...
 Calculation will run on 12 cores.


 Occupation and symmetry of molecular orbitals

 Point group: C1 (1 irreducible representation).

                           A     All 
 -------------------------------------
 All molecular orbitals:
  - Alpha                  4     4   
  - Beta                   4     4   
 -------------------------------------
 Alpha orbitals:
  - Frozen occupied        0     0   
  - Active occupied        1     1   
  - Active virtual         3     3   
  - Frozen virtual         0     0   
 -------------------------------------
 Beta orbitals:
  - Frozen occupied        0     0   
  - Active occupied        1     1   
  - Active virtual         3     3   
  - Frozen virtual         0     0   
 -------------------------------------

 Import integrals:   CPU 0.00 s  wall 0.00 s

 Import integrals:   CPU 0.08 s  wall 0.04 s

 Run QIS:   CPU 0.00 s  wall 0.01 s

 MP2 amplitudes:   CPU 0.00 s  wall 0.00 s

Running a double precision version
           CCSD T amplitudes will be solved using DIIS.

           Start     Size      MaxIter   EConv     TConv     
           3         7         100       1.00e-06  1.00e-04  
 ------------------------------------------------------------------------------
           Energy (a.u.)   Ediff      Tdiff       Comment
 ------------------------------------------------------------------------------
            -0.94629315                           
     1      -0.94955999   3.27e-03   9.17e-02     
     2      -0.95038337   8.23e-04   2.29e-02     
     3      -0.95059810   2.15e-04   6.08e-03     
     4      -0.95067861   8.05e-05   2.30e-03     Switched to DIIS steps.
     5      -0.95067868   6.89e-08   1.17e-04     
     6      -0.95067866   2.19e-08   5.05e-06     
 ------------------------------------------------------------------------------
            -0.95067866                           CCSD T converged.

End of double precision
 SCF energy                 = -0.93300420
 MP2 energy                 = -0.94629315
 CCSD correlation energy    = -0.01767446
 CCSD total energy          = -0.95067866

 CCSD  T1^2 = 0.0000  T2^2 = 0.0068  Leading amplitudes:

 Amplitude    Orbitals with energies
 0.0024742858       1 (A) A                   ->    3 (A) A                    
                   -0.7247                          0.6334                     
 0.0024742858       1 (A) B                   ->    3 (A) B                    
                   -0.7247                          0.6334                     

 Amplitude    Orbitals with energies
 -0.0578160432       1 (A) A       1 (A) B     ->    3 (A) A       3 (A) B      
                    -0.7247       -0.7247            0.6334        0.6334       
  0.0578160432       1 (A) A       1 (A) B     ->    3 (A) B       3 (A) A      
                    -0.7247       -0.7247            0.6334        0.6334       
  0.0578160432       1 (A) B       1 (A) A     ->    3 (A) A       3 (A) B      
                    -0.7247       -0.7247            0.6334        0.6334       
 -0.0578160432       1 (A) B       1 (A) A     ->    3 (A) B       3 (A) A      
                    -0.7247       -0.7247            0.6334        0.6334       

 Computing CCSD intermediates for later calculations in double precision
 Finished.

Running a double precision version
           CCSD Lambda amplitudes will be solved using DIIS.
           Start     Size      MaxIter   EConv     LConv     
           3         7         100       1.00e-06  1.00e-04  
 ------------------------------------------------------------------------------
            Enorm      Ldiff       Comment
 ------------------------------------------------------------------------------
     1     8.51e-04   8.39e-04     
     2     2.23e-04   2.17e-04     
     3     6.30e-05   5.90e-05     
     4     3.73e-06   2.30e-05     Switched to DIIS steps.
     5     2.29e-07   5.96e-07     
 ------------------------------------------------------------------------------
                                   CCSD Lambda converged.

 Computing density matrices in double precision...
 Computing density matrices... Done.
 Reference state properties
 Dipole moment (a.u.): 0.000000 (X -0.000000, Y -0.000000, Z 0.000000)
 R-squared (a.u.): 3.558185 (XX 1.124047, YY 1.124047, ZZ 1.310091)
 Gauge origin (a.u.): (0.000000, 0.000000, 0.000000)
 Angular momentum (a.u.) against gauge origin: 
 (X 0.000000i, Y 0.000000i, Z 0.000000i)
 Traces of the OPDMs: Tr(AA) 1.000000, Tr(BB) 1.000000
 Density matrix was written to a file for further analysis.

 CCSD calculation:   CPU 0.91 s  wall 0.52 s

        Solving for EOMEE-CCSD A singlet states.

Running a double precision version
        EOMEE-CCSD/MP2 right amplitudes will be solved using Davidson.
        Amplitudes will be solved using standard  algorithm.
     Hard-coded thresholds: 
     LinDepThresh=1.00e-15  NormThresh=1.00e-06  ReorthogonThresh=1.00e-02

      Roots     MaxVec    MaxIter   Precond   Conv      Shift    
      3         120       60        1         1.00e-05  0.00e+00  
 ------------------------------------------------------------------------------
      Iter ConvRoots NVecs ResNorm Current eigenvalues (eV)
 ------------------------------------------------------------------------------
      0    0      3     3.86e-02   19.8685   28.6080   65.3194   
      1    2      6     5.49e-03   18.7611*  28.0095   50.1378*  
      2    2      7     8.04e-05   18.7611*  27.7538   50.1378*  
      3    3      8     3.32e-07   18.7611*  27.7508*  50.1378*  

     Davidson procedure converged

 EOMEE transition 1/A
 Total energy = -0.26122198 a.u.  Excitation energy = 18.76107043 eV.
 R0^2 = 0.0000  R1^2 = 0.9655  R2^2 = 0.0345  Res^2 = 1.19e-31
 Conv-d = yes

 Amplitude    Transitions between orbitals
  0.6947848354       1 (A) A                   ->    2 (A) A                    
  0.6947848354       1 (A) B                   ->    2 (A) B                    
 -0.0043620813       1 (A) A                   ->    4 (A) A                    
 -0.0043620813       1 (A) B                   ->    4 (A) B                    
 -0.1313328519       1 (A) A       1 (A) B     ->    2 (A) A       3 (A) B      
 -0.1313328519       1 (A) A       1 (A) B     ->    3 (A) A       2 (A) B      
  0.1313328519       1 (A) A       1 (A) B     ->    3 (A) B       2 (A) A      
  0.1313328519       1 (A) A       1 (A) B     ->    2 (A) B       3 (A) A      
  0.1313328519       1 (A) B       1 (A) A     ->    2 (A) A       3 (A) B      
  0.1313328519       1 (A) B       1 (A) A     ->    3 (A) A       2 (A) B      
 -0.1313328519       1 (A) B       1 (A) A     ->    2 (A) B       3 (A) A      
 -0.1313328519       1 (A) B       1 (A) A     ->    3 (A) B       2 (A) A      
  0.0025858649       1 (A) A       1 (A) B     ->    3 (A) A       4 (A) B      
  0.0025858649       1 (A) A       1 (A) B     ->    4 (A) A       3 (A) B      
 -0.0025858649       1 (A) A       1 (A) B     ->    4 (A) B       3 (A) A      
 -0.0025858649       1 (A) A       1 (A) B     ->    3 (A) B       4 (A) A      
 -0.0025858649       1 (A) B       1 (A) A     ->    3 (A) A       4 (A) B      
 -0.0025858649       1 (A) B       1 (A) A     ->    4 (A) A       3 (A) B      
  0.0025858649       1 (A) B       1 (A) A     ->    3 (A) B       4 (A) A      
  0.0025858649       1 (A) B       1 (A) A     ->    4 (A) B       3 (A) A      

              Summary of significant orbitals:

               Number  Type             Irrep      Energy
               1       Occ  Alpha       1 (A)     -0.7247
               1       Occ  Beta        1 (A)     -0.7247
               2       Vir  Alpha       2 (A)      0.3181
               3       Vir  Alpha       3 (A)      0.6334
               4       Vir  Alpha       4 (A)      2.1379
               2       Vir  Beta        2 (A)      0.3181
               3       Vir  Beta        3 (A)      0.6334
               4       Vir  Beta        4 (A)      2.1379


 EOMEE transition 2/A
 Total energy = 0.06914491 a.u.  Excitation energy = 27.75081051 eV.
 R0^2 = 0.0001  R1^2 = 0.9716  R2^2 = 0.0284  Res^2 = 9.97e-07
 Conv-d = yes

 Amplitude    Transitions between orbitals
 -0.6969980923       1 (A) A                   ->    3 (A) A                    
 -0.6969980923       1 (A) B                   ->    3 (A) B                    
  0.1509379273       1 (A) A       1 (A) B     ->    3 (A) A       3 (A) B      
 -0.1509379273       1 (A) A       1 (A) B     ->    3 (A) B       3 (A) A      
 -0.1509379273       1 (A) B       1 (A) A     ->    3 (A) A       3 (A) B      
  0.1509379273       1 (A) B       1 (A) A     ->    3 (A) B       3 (A) A      
  0.0604472809       1 (A) A       1 (A) B     ->    2 (A) A       2 (A) B      
 -0.0604472809       1 (A) A       1 (A) B     ->    2 (A) B       2 (A) A      
 -0.0604472809       1 (A) B       1 (A) A     ->    2 (A) A       2 (A) B      
  0.0604472809       1 (A) B       1 (A) A     ->    2 (A) B       2 (A) A      
 -0.0437272241       1 (A) A       1 (A) B     ->    4 (A) A       4 (A) B      
  0.0437272241       1 (A) A       1 (A) B     ->    4 (A) B       4 (A) A      
  0.0437272241       1 (A) B       1 (A) A     ->    4 (A) A       4 (A) B      
 -0.0437272241       1 (A) B       1 (A) A     ->    4 (A) B       4 (A) A      
 -0.0044224945       1 (A) A       1 (A) B     ->    2 (A) A       4 (A) B      
 -0.0044224945       1 (A) A       1 (A) B     ->    4 (A) A       2 (A) B      
  0.0044224945       1 (A) A       1 (A) B     ->    4 (A) B       2 (A) A      
  0.0044224945       1 (A) A       1 (A) B     ->    2 (A) B       4 (A) A      
  0.0044224945       1 (A) B       1 (A) A     ->    2 (A) A       4 (A) B      
  0.0044224945       1 (A) B       1 (A) A     ->    4 (A) A       2 (A) B      
 -0.0044224945       1 (A) B       1 (A) A     ->    2 (A) B       4 (A) A      
 -0.0044224945       1 (A) B       1 (A) A     ->    4 (A) B       2 (A) A      

              Summary of significant orbitals:

               Number  Type             Irrep      Energy
               1       Occ  Alpha       1 (A)     -0.7247
               1       Occ  Beta        1 (A)     -0.7247
               2       Vir  Alpha       2 (A)      0.3181
               3       Vir  Alpha       3 (A)      0.6334
               4       Vir  Alpha       4 (A)      2.1379
               2       Vir  Beta        2 (A)      0.3181
               3       Vir  Beta        3 (A)      0.6334
               4       Vir  Beta        4 (A)      2.1379


 EOMEE transition 3/A
 Total energy = 0.89185022 a.u.  Excitation energy = 50.13776065 eV.
 R0^2 = 0.0000  R1^2 = 0.0665  R2^2 = 0.9335  Res^2 = 1.79e-29
 Conv-d = yes

 Amplitude    Transitions between orbitals
 -0.1310103937       1 (A) A                   ->    4 (A) A                    
 -0.1310103937       1 (A) B                   ->    4 (A) B                    
 -0.1268311112       1 (A) A                   ->    2 (A) A                    
 -0.1268311112       1 (A) B                   ->    2 (A) B                    
 -0.6769789428       1 (A) A       1 (A) B     ->    2 (A) A       3 (A) B      
 -0.6769789428       1 (A) A       1 (A) B     ->    3 (A) A       2 (A) B      
  0.6769789428       1 (A) A       1 (A) B     ->    3 (A) B       2 (A) A      
  0.6769789428       1 (A) A       1 (A) B     ->    2 (A) B       3 (A) A      
  0.6769789428       1 (A) B       1 (A) A     ->    2 (A) A       3 (A) B      
  0.6769789428       1 (A) B       1 (A) A     ->    3 (A) A       2 (A) B      
 -0.6769789428       1 (A) B       1 (A) A     ->    2 (A) B       3 (A) A      
 -0.6769789428       1 (A) B       1 (A) A     ->    3 (A) B       2 (A) A      
 -0.0919220158       1 (A) A       1 (A) B     ->    3 (A) A       4 (A) B      
 -0.0919220158       1 (A) A       1 (A) B     ->    4 (A) A       3 (A) B      
  0.0919220158       1 (A) A       1 (A) B     ->    4 (A) B       3 (A) A      
  0.0919220158       1 (A) A       1 (A) B     ->    3 (A) B       4 (A) A      
  0.0919220158       1 (A) B       1 (A) A     ->    3 (A) A       4 (A) B      
  0.0919220158       1 (A) B       1 (A) A     ->    4 (A) A       3 (A) B      
 -0.0919220158       1 (A) B       1 (A) A     ->    3 (A) B       4 (A) A      
 -0.0919220158       1 (A) B       1 (A) A     ->    4 (A) B       3 (A) A      

              Summary of significant orbitals:

               Number  Type             Irrep      Energy
               1       Occ  Alpha       1 (A)     -0.7247
               1       Occ  Beta        1 (A)     -0.7247
               2       Vir  Alpha       2 (A)      0.3181
               3       Vir  Alpha       3 (A)      0.6334
               4       Vir  Alpha       4 (A)      2.1379
               2       Vir  Beta        2 (A)      0.3181
               3       Vir  Beta        3 (A)      0.6334
               4       Vir  Beta        4 (A)      2.1379


 EEs and amplitudes of EOMEE has be exported to fchk file
Running a double precision version
      EOM-CCSD/MP2 left amplitudes will be solved using Davidson.
        Amplitudes will be solved using MOM  algorithm.
     Hard-coded thresholds: 
     LinDepThresh=1.00e-15  NormThresh=1.00e-06  ReorthogonThresh=1.00e-02

      Roots     MaxVec    MaxIter   Precond   Conv      Shift    
      3         120       60        1         1.00e-05  0.00e+00  
 ------------------------------------------------------------------------------
      Iter ConvRoots NVecs ResNorm Current eigenvalues (eV)
 ------------------------------------------------------------------------------
      0    2      3     8.35e-06   18.7611*  27.7508   50.1378*  
      1    2      4     4.16e-06   18.7611*  27.7508   50.1378*  
      2    3      5     4.46e-07   18.7611*  27.7507*  50.1378*  

     Davidson procedure converged

 Excited state properties for  EOMEE-CCSD transition 1/A
 Dipole moment (a.u.): 0.000000 (X -0.000000, Y -0.000000, Z 0.000000)
 R-squared (a.u.): 8.836777 (XX 1.877633, YY 1.877633, ZZ 5.081511)
 Gauge origin (a.u.): (0.000000, 0.000000, 0.000000)
 Angular momentum (a.u.) against gauge origin: 
 (X 0.000000i, Y 0.000000i, Z 0.000000i)
 Traces of the OPDMs: Tr(AA) 1.000000, Tr(BB) 1.000000

 Excited state properties for  EOMEE-CCSD transition 2/A
 Dipole moment (a.u.): 0.000000 (X -0.000000, Y -0.000000, Z 0.000000)
 R-squared (a.u.): 6.749776 (XX 2.200497, YY 2.200497, ZZ 2.348782)
 Gauge origin (a.u.): (0.000000, 0.000000, 0.000000)
 Angular momentum (a.u.) against gauge origin: 
 (X 0.000000i, Y 0.000000i, Z 0.000000i)
 Traces of the OPDMs: Tr(AA) 1.000000, Tr(BB) 1.000000

 Excited state properties for  EOMEE-CCSD transition 3/A
 Dipole moment (a.u.): 0.000000 (X -0.000000, Y -0.000000, Z 0.000000)
 R-squared (a.u.): 12.788925 (XX 3.371603, YY 3.371603, ZZ 6.045718)
 Gauge origin (a.u.): (0.000000, 0.000000, 0.000000)
 Angular momentum (a.u.) against gauge origin: 
 (X 0.000000i, Y 0.000000i, Z 0.000000i)
 Traces of the OPDMs: Tr(AA) 1.000000, Tr(BB) 1.000000

        Solving for EOMEE-CCSD A triplet states.

Running a double precision version
        EOMEE-CCSD/MP2 right amplitudes will be solved using Davidson.
        Amplitudes will be solved using standard  algorithm.
     Hard-coded thresholds: 
     LinDepThresh=1.00e-15  NormThresh=1.00e-06  ReorthogonThresh=1.00e-02

      Roots     MaxVec    MaxIter   Precond   Conv      Shift    
      3         120       60        1         1.00e-05  0.00e+00  
 ------------------------------------------------------------------------------
      Iter ConvRoots NVecs ResNorm Current eigenvalues (eV)
 ------------------------------------------------------------------------------
      0    0      3     1.18e-02   17.0163   22.2113   56.4770   
      1    3      6     4.89e-31   16.4957*  22.1760*  47.3896*  

     Davidson procedure converged

 EOMEE transition 1/A
 Total energy = -0.34447294 a.u.  Excitation energy = 16.49569642 eV.
 R0^2 = 0.0000  R1^2 = 0.9838  R2^2 = 0.0162  Res^2 = 7.14e-31
 Conv-d = yes

 Amplitude    Transitions between orbitals
 -0.6983948592       1 (A) A                   ->    2 (A) A                    
  0.6983948592       1 (A) B                   ->    2 (A) B                    
 -0.0644219651       1 (A) A                   ->    4 (A) A                    
  0.0644219651       1 (A) B                   ->    4 (A) B                    
  0.0892212670       1 (A) A       1 (A) B     ->    2 (A) A       3 (A) B      
 -0.0892212670       1 (A) A       1 (A) B     ->    3 (A) A       2 (A) B      
 -0.0892212670       1 (A) A       1 (A) B     ->    3 (A) B       2 (A) A      
  0.0892212670       1 (A) A       1 (A) B     ->    2 (A) B       3 (A) A      
 -0.0892212670       1 (A) B       1 (A) A     ->    2 (A) A       3 (A) B      
  0.0892212670       1 (A) B       1 (A) A     ->    3 (A) A       2 (A) B      
 -0.0892212670       1 (A) B       1 (A) A     ->    2 (A) B       3 (A) A      
  0.0892212670       1 (A) B       1 (A) A     ->    3 (A) B       2 (A) A      
  0.0115756867       1 (A) A       1 (A) B     ->    3 (A) A       4 (A) B      
 -0.0115756867       1 (A) A       1 (A) B     ->    4 (A) A       3 (A) B      
 -0.0115756867       1 (A) A       1 (A) B     ->    4 (A) B       3 (A) A      
  0.0115756867       1 (A) A       1 (A) B     ->    3 (A) B       4 (A) A      
 -0.0115756867       1 (A) B       1 (A) A     ->    3 (A) A       4 (A) B      
  0.0115756867       1 (A) B       1 (A) A     ->    4 (A) A       3 (A) B      
 -0.0115756867       1 (A) B       1 (A) A     ->    3 (A) B       4 (A) A      
  0.0115756867       1 (A) B       1 (A) A     ->    4 (A) B       3 (A) A      

              Summary of significant orbitals:

               Number  Type             Irrep      Energy
               1       Occ  Alpha       1 (A)     -0.7247
               1       Occ  Beta        1 (A)     -0.7247
               2       Vir  Alpha       2 (A)      0.3181
               3       Vir  Alpha       3 (A)      0.6334
               4       Vir  Alpha       4 (A)      2.1379
               2       Vir  Beta        2 (A)      0.3181
               3       Vir  Beta        3 (A)      0.6334
               4       Vir  Beta        4 (A)      2.1379


 EOMEE transition 2/A
 Total energy = -0.13572728 a.u.  Excitation energy = 22.17595471 eV.
 R0^2 = 0.0000  R1^2 = 0.9994  R2^2 = 0.0006  Res^2 = 2.68e-31
 Conv-d = yes

 Amplitude    Transitions between orbitals
 -0.7068810176       1 (A) A                   ->    3 (A) A                    
  0.7068810176       1 (A) B                   ->    3 (A) B                    
  0.0178669238       1 (A) A       1 (A) B     ->    2 (A) A       4 (A) B      
 -0.0178669238       1 (A) A       1 (A) B     ->    4 (A) A       2 (A) B      
 -0.0178669238       1 (A) A       1 (A) B     ->    4 (A) B       2 (A) A      
  0.0178669238       1 (A) A       1 (A) B     ->    2 (A) B       4 (A) A      
 -0.0178669238       1 (A) B       1 (A) A     ->    2 (A) A       4 (A) B      
  0.0178669238       1 (A) B       1 (A) A     ->    4 (A) A       2 (A) B      
 -0.0178669238       1 (A) B       1 (A) A     ->    2 (A) B       4 (A) A      
  0.0178669238       1 (A) B       1 (A) A     ->    4 (A) B       2 (A) A      

              Summary of significant orbitals:

               Number  Type             Irrep      Energy
               1       Occ  Alpha       1 (A)     -0.7247
               1       Occ  Beta        1 (A)     -0.7247
               2       Vir  Alpha       2 (A)      0.3181
               3       Vir  Alpha       3 (A)      0.6334
               4       Vir  Alpha       4 (A)      2.1379
               2       Vir  Beta        2 (A)      0.3181
               3       Vir  Beta        3 (A)      0.6334
               4       Vir  Beta        4 (A)      2.1379


 EOMEE transition 3/A
 Total energy = 0.79085832 a.u.  Excitation energy = 47.38963128 eV.
 R0^2 = 0.0000  R1^2 = 0.0178  R2^2 = 0.9822  Res^2 = 4.84e-31
 Conv-d = yes

 Amplitude    Transitions between orbitals
 -0.0820019489       1 (A) A                   ->    2 (A) A                    
  0.0820019489       1 (A) B                   ->    2 (A) B                    
 -0.0466869860       1 (A) A                   ->    4 (A) A                    
  0.0466869860       1 (A) B                   ->    4 (A) B                    
 -0.6976410341       1 (A) A       1 (A) B     ->    2 (A) A       3 (A) B      
  0.6976410341       1 (A) A       1 (A) B     ->    3 (A) A       2 (A) B      
  0.6976410341       1 (A) A       1 (A) B     ->    3 (A) B       2 (A) A      
 -0.6976410341       1 (A) A       1 (A) B     ->    2 (A) B       3 (A) A      
  0.6976410341       1 (A) B       1 (A) A     ->    2 (A) A       3 (A) B      
 -0.6976410341       1 (A) B       1 (A) A     ->    3 (A) A       2 (A) B      
  0.6976410341       1 (A) B       1 (A) A     ->    2 (A) B       3 (A) A      
 -0.6976410341       1 (A) B       1 (A) A     ->    3 (A) B       2 (A) A      
  0.0662796590       1 (A) A       1 (A) B     ->    3 (A) A       4 (A) B      
 -0.0662796590       1 (A) A       1 (A) B     ->    4 (A) A       3 (A) B      
 -0.0662796590       1 (A) A       1 (A) B     ->    4 (A) B       3 (A) A      
  0.0662796590       1 (A) A       1 (A) B     ->    3 (A) B       4 (A) A      
 -0.0662796590       1 (A) B       1 (A) A     ->    3 (A) A       4 (A) B      
  0.0662796590       1 (A) B       1 (A) A     ->    4 (A) A       3 (A) B      
 -0.0662796590       1 (A) B       1 (A) A     ->    3 (A) B       4 (A) A      
  0.0662796590       1 (A) B       1 (A) A     ->    4 (A) B       3 (A) A      

              Summary of significant orbitals:

               Number  Type             Irrep      Energy
               1       Occ  Alpha       1 (A)     -0.7247
               1       Occ  Beta        1 (A)     -0.7247
               2       Vir  Alpha       2 (A)      0.3181
               3       Vir  Alpha       3 (A)      0.6334
               4       Vir  Alpha       4 (A)      2.1379
               2       Vir  Beta        2 (A)      0.3181
               3       Vir  Beta        3 (A)      0.6334
               4       Vir  Beta        4 (A)      2.1379


 EEs and amplitudes of EOMEE has be exported to fchk file
Running a double precision version
      EOM-CCSD/MP2 left amplitudes will be solved using Davidson.
        Amplitudes will be solved using MOM  algorithm.
     Hard-coded thresholds: 
     LinDepThresh=1.00e-15  NormThresh=1.00e-06  ReorthogonThresh=1.00e-02

      Roots     MaxVec    MaxIter   Precond   Conv      Shift    
      3         120       60        1         1.00e-05  0.00e+00  
 ------------------------------------------------------------------------------
      Iter ConvRoots NVecs ResNorm Current eigenvalues (eV)
 ------------------------------------------------------------------------------
      0    3      3     5.57e-09   16.4957*  22.1760*  47.3896*  

     Davidson procedure converged

 Excited state properties for  EOMEE-CCSD transition 1/A
 Dipole moment (a.u.): 0.000000 (X -0.000000, Y -0.000000, Z 0.000000)
 R-squared (a.u.): 8.423500 (XX 1.816610, YY 1.816610, ZZ 4.790280)
 Gauge origin (a.u.): (0.000000, 0.000000, 0.000000)
 Angular momentum (a.u.) against gauge origin: 
 (X 0.000000i, Y 0.000000i, Z 0.000000i)
 Traces of the OPDMs: Tr(AA) 1.000000, Tr(BB) 1.000000

 Excited state properties for  EOMEE-CCSD transition 2/A
 Dipole moment (a.u.): 0.000000 (X -0.000000, Y -0.000000, Z 0.000000)
 R-squared (a.u.): 7.538507 (XX 2.471199, YY 2.471199, ZZ 2.596110)
 Gauge origin (a.u.): (0.000000, 0.000000, 0.000000)
 Angular momentum (a.u.) against gauge origin: 
 (X 0.000000i, Y 0.000000i, Z 0.000000i)
 Traces of the OPDMs: Tr(AA) 1.000000, Tr(BB) 1.000000

 Excited state properties for  EOMEE-CCSD transition 3/A
 Dipole moment (a.u.): 0.000000 (X -0.000000, Y -0.000000, Z 0.000000)
 R-squared (a.u.): 13.202143 (XX 3.440899, YY 3.440899, ZZ 6.320345)
 Gauge origin (a.u.): (0.000000, 0.000000, 0.000000)
 Angular momentum (a.u.) against gauge origin: 
 (X 0.000000i, Y 0.000000i, Z 0.000000i)
 Traces of the OPDMs: Tr(AA) 1.000000, Tr(BB) 1.000000

 EOMEE-CCSD calculation:   CPU 1.54 s  wall 1.19 s

 Total ccman2 time:   CPU 2.68 s  wall 1.84 s


 --------------------------------------------------------------

                    Orbital Energies (a.u.)
 --------------------------------------------------------------

 Alpha MOs
 -- Occupied --
 -0.7247
 -- Virtual --
  0.3181   0.6334   2.1379
 --------------------------------------------------------------

          Ground-State Mulliken Net Atomic Charges

     Atom                 Charge (a.u.)
  ----------------------------------------
      1 H                    -0.000000
      2 H                     0.000000
  ----------------------------------------
  Sum of atomic charges =     0.000000

 -----------------------------------------------------------------
                    Cartesian Multipole Moments
 -----------------------------------------------------------------
    Charge (ESU x 10^10)
                 0.0000
    Dipole Moment (Debye)
         X       0.0000      Y       0.0000      Z       0.0000
       Tot       0.0000
    Quadrupole Moments (Debye-Ang)
        XX      -1.5119     XY       0.0000     YY      -1.5119
        XZ       0.0000     YZ       0.0000     ZZ      -1.3779
    Octopole Moments (Debye-Ang^2)
       XXX       0.0000    XXY       0.0000    XYY       0.0000
       YYY       0.0000    XXZ       0.0000    XYZ       0.0000
       YYZ       0.0000    XZZ       0.0000    YZZ       0.0000
       ZZZ       0.0000
    Hexadecapole Moments (Debye-Ang^3)
      XXXX      -1.1169   XXXY       0.0000   XXYY      -0.3723
      XYYY       0.0000   YYYY      -1.1169   XXXZ       0.0000
      XXYZ       0.0000   XYYZ       0.0000   YYYZ       0.0000
      XXZZ      -0.4096   XYZZ       0.0000   YYZZ      -0.4096
      XZZZ       0.0000   YZZZ       0.0000   ZZZZ      -1.3347
 -----------------------------------------------------------------
 Total job time:  3.02s(wall), 3.97s(cpu) 
 Thu Aug 11 11:18:20 2022

        *************************************************************
        *                                                           *
        *  Thank you very much for using Q-Chem.  Have a nice day.  *
        *                                                           *
        *************************************************************


