Jobname.Temp
SP        R                             6-31G               
Number of atoms                            I                2
Charge                                     I                0
Multiplicity                               I                1
Number of electrons                        I                2
Number of alpha electrons                  I                1
Number of beta electrons                   I                1
Atomic numbers                             I   N=           2
           1           1
Current cartesian coordinates              R   N=           6
  0.00000000E+00  0.00000000E+00 -3.77945225E-01  0.00000000E+00  0.00000000E+00
  3.77945225E-01
Nuclear charges                            R   N=           2
  1.00000000E+00  1.00000000E+00
Number of basis functions                  I                4
Number of contracted shells                I                4
Number of primitive shells                 I                8
Highest angular momentum                   I                0
Largest degree of contraction              I                3
Shell types                                I   N=           4
           0           0           0           0
Number of primitives per shell             I   N=           4
           3           1           3           1
Shell to atom map                          I   N=           4
           1           1           2           2
Primitive exponents                        R   N=           8
  1.87311370E+01  2.82539370E+00  6.40121700E-01  1.61277800E-01  1.87311370E+01
  2.82539370E+00  6.40121700E-01  1.61277800E-01
Contraction coefficients                   R   N=           8
  3.34945995E-02  2.34726947E-01  8.13757318E-01  1.00000000E+00  3.34945995E-02
  2.34726947E-01  8.13757318E-01  1.00000000E+00
Coordinates of each shell                  R   N=          12
  0.00000000E+00  0.00000000E+00 -3.77945225E-01  0.00000000E+00  0.00000000E+00
 -3.77945225E-01  0.00000000E+00  0.00000000E+00  3.77945225E-01  0.00000000E+00
  0.00000000E+00  3.77945225E-01
Overlap Matrix                             R   N=          10
  1.00000000E+00  6.58292049E-01  1.00000000E+00  7.80299229E-01  6.10642459E-01
  1.00000000E+00  6.10642459E-01  9.54970644E-01  6.58292049E-01  1.00000000E+00
Core Hamiltonian Matrix                    R   N=          10
 -1.36520343E+00 -1.08562676E+00 -1.00250130E+00 -1.40728399E+00 -1.04194091E+00
 -1.36520343E+00 -1.04194091E+00 -9.81520180E-01 -1.08562676E+00 -1.00250130E+00
Orbital Coefficients CCMAN2 Alpha          R   N=          16
 -3.84537270E-01 -1.78655450E-01 -3.84537270E-01 -1.78655450E-01 -5.64468338E-02
 -3.27071738E+00  5.64468338E-02  3.27071738E+00  6.12196053E-01 -6.66361392E-01
  6.12196053E-01 -6.66361392E-01 -1.71770968E+00  1.92710646E+00  1.71770968E+00
 -1.92710646E+00
Orbital Coefficients CCMAN2 Beta           R   N=          16
 -5.64468338E-02 -3.27071738E+00  5.64468338E-02  3.27071738E+00  6.12196053E-01
 -6.66361392E-01  6.12196053E-01 -6.66361392E-01 -1.71770968E+00  1.92710646E+00
  1.71770968E+00 -1.92710646E+00 -3.84537270E-01 -1.78655450E-01 -3.84537270E-01
 -1.78655450E-01
EOMEE transition A Excitation Energies     R   N=           3
  6.89456681E-01  1.01982356E+00  1.84252888E+00
Number of Active Occ                       I                2
Number of Active Vir                       I                6
Alpha Amplitudes                           R   N=           8
  6.94784835E-01  6.94784835E-01 -6.96998092E-01 -6.96998092E-01 -1.26831111E-01
 -1.31010394E-01 -1.26831111E-01 -1.31010394E-01
Alpha J Indexes                            I   N=           4
           0           2           4           8
Alpha I Indexes                            I   N=           8
           0           9           1          10           0           2
           9          11
EOMEE transition A Excitation Energies     R   N=           3
  6.06205715E-01  8.14951374E-01  1.74153698E+00
Number of Active Occ                       I                2
Number of Active Vir                       I                6
Alpha Amplitudes                           R   N=           4
 -6.98394859E-01  6.98394859E-01 -7.06881018E-01  7.06881018E-01
Alpha J Indexes                            I   N=           4
           0           2           4           4
Alpha I Indexes                            I   N=           4
           0           9           1          10
Number of independent functions            I                4
Alpha MO coefficients                      R   N=          16
 -3.84537270E-01 -1.78655450E-01 -3.84537270E-01 -1.78655450E-01 -5.64468338E-02
 -3.27071738E+00  5.64468338E-02  3.27071738E+00  6.12196053E-01 -6.66361392E-01
  6.12196053E-01 -6.66361392E-01 -1.71770968E+00  1.92710646E+00  1.71770968E+00
 -1.92710646E+00
Alpha Orbital Energies                     R   N=           4
 -7.24713885E-01  3.18090717E-01  6.33425376E-01  2.13791862E+00
Total SCF Density                          R   N=          10
  3.06336651E-01  1.40190871E-01  7.23917748E-02  2.81742539E-01  1.28673846E-01
  3.06336651E-01  1.28673846E-01  6.25229574E-02  1.40190871E-01  7.23917748E-02
Pure Switching                             I                1
Dipole_Data                                R   N=           3
  0.00000000E+00  0.00000000E+00  8.88403254E-15
Quadrupole_Data                            R   N=           6
 -1.51188143E+00  0.00000000E+00 -1.51188143E+00  0.00000000E+00  0.00000000E+00
 -1.37786121E+00
Octapole_Data                              R   N=          10
  0.00000000E+00  0.00000000E+00  0.00000000E+00  0.00000000E+00  2.69149236E-15
  0.00000000E+00  2.69149236E-15  0.00000000E+00  0.00000000E+00  8.51385966E-15
Hexadecapole_Data                          R   N=          15
 -1.11693136E+00  0.00000000E+00 -3.72310452E-01  0.00000000E+00 -1.11693136E+00
  0.00000000E+00  0.00000000E+00  0.00000000E+00  0.00000000E+00 -4.09625971E-01
  0.00000000E+00 -4.09625971E-01  0.00000000E+00  0.00000000E+00 -1.33472106E+00
