Jobname.Temp
SP        R                             6-31G               
Number of atoms                            I                2
Charge                                     I                0
Multiplicity                               I                1
Number of electrons                        I                2
Number of alpha electrons                  I                1
Number of beta electrons                   I                1
Atomic numbers                             I   N=           2
           1           1
Current cartesian coordinates              R   N=           6
  0.00000000E+00  0.00000000E+00 -1.32280829E+00  0.00000000E+00  0.00000000E+00
  1.32280829E+00
Nuclear charges                            R   N=           2
  1.00000000E+00  1.00000000E+00
Number of basis functions                  I                4
Number of contracted shells                I                4
Number of primitive shells                 I                8
Highest angular momentum                   I                0
Largest degree of contraction              I                3
Shell types                                I   N=           4
           0           0           0           0
Number of primitives per shell             I   N=           4
           3           1           3           1
Shell to atom map                          I   N=           4
           1           1           2           2
Primitive exponents                        R   N=           8
  1.87311370E+01  2.82539370E+00  6.40121700E-01  1.61277800E-01  1.87311370E+01
  2.82539370E+00  6.40121700E-01  1.61277800E-01
Contraction coefficients                   R   N=           8
  3.34945995E-02  2.34726947E-01  8.13757318E-01  1.00000000E+00  3.34945995E-02
  2.34726947E-01  8.13757318E-01  1.00000000E+00
Coordinates of each shell                  R   N=          12
  0.00000000E+00  0.00000000E+00 -1.32280829E+00  0.00000000E+00  0.00000000E+00
 -1.32280829E+00  0.00000000E+00  0.00000000E+00  1.32280829E+00  0.00000000E+00
  0.00000000E+00  1.32280829E+00
Overlap Matrix                             R   N=          10
  1.00000000E+00  6.58292049E-01  1.00000000E+00  7.74088910E-02  2.62554246E-01
  1.00000000E+00  2.62554246E-01  5.68692843E-01  6.58292049E-01  1.00000000E+00
Core Hamiltonian Matrix                    R   N=          10
 -6.35530456E-01 -7.31221004E-01 -7.64220976E-01 -1.67157879E-01 -3.55310125E-01
 -6.35530456E-01 -3.55310125E-01 -5.26365341E-01 -7.31221004E-01 -7.64220976E-01
Orbital Coefficients CCMAN2 Alpha          R   N=          16
 -2.44505437E-01 -4.02619080E-01 -2.44505437E-01 -4.02619080E-01  2.09195888E-01
  8.58055099E-01 -2.09195888E-01 -8.58055099E-01  9.21905213E-01 -1.08413937E+00
 -9.21905213E-01  1.08413937E+00 -9.33574639E-01  6.91059682E-01 -9.33574639E-01
  6.91059682E-01
Orbital Coefficients CCMAN2 Beta           R   N=          16
  2.09195888E-01  8.58055099E-01 -2.09195888E-01 -8.58055099E-01  9.21905213E-01
 -1.08413937E+00 -9.21905213E-01  1.08413937E+00 -9.33574639E-01  6.91059682E-01
 -9.33574639E-01  6.91059682E-01 -2.44505437E-01 -4.02619080E-01 -2.44505437E-01
 -4.02619080E-01
EOMEE transition A Excitation Energies     R   N=           3
  4.00344550E-01  5.46202538E-01  1.06384806E+00
Number of Active Occ                       I                2
Number of Active Vir                       I                6
Alpha Amplitudes                           R   N=           4
 -7.04344671E-01 -7.04344671E-01  6.05372079E-01  6.05372079E-01
Alpha J Indexes                            I   N=           4
           0           2           2           4
Alpha I Indexes                            I   N=           4
           0           9           1          10
EOMEE transition A Excitation Energies     R   N=           3
  1.19939283E-01  1.03610990E+00  1.03993369E+00
Number of Active Occ                       I                2
Number of Active Vir                       I                6
Alpha Amplitudes                           R   N=           8
  7.00384866E-01 -7.00384866E-01 -1.01973833E-01  6.72680489E-01  1.01973833E-01
 -6.72680489E-01  6.67893910E-01 -6.67893910E-01
Alpha J Indexes                            I   N=           4
           0           2           6           8
Alpha I Indexes                            I   N=           8
           0           9           0           1           9          10
           2          11
Number of independent functions            I                4
Alpha MO coefficients                      R   N=          16
 -2.44505437E-01 -4.02619080E-01 -2.44505437E-01 -4.02619080E-01  2.09195888E-01
  8.58055099E-01 -2.09195888E-01 -8.58055099E-01  9.21905213E-01 -1.08413937E+00
 -9.21905213E-01  1.08413937E+00 -9.33574639E-01  6.91059682E-01 -9.33574639E-01
  6.91059682E-01
Alpha Orbital Energies                     R   N=           4
 -4.52078142E-01  7.23596625E-02  1.02464667E+00  1.03953466E+00
Total SCF Density                          R   N=          10
  1.63312503E-01  2.27098325E-01  3.20620978E-01  1.05335375E-01  1.53716038E-01
  1.63312503E-01  1.53716038E-01  2.25430978E-01  2.27098325E-01  3.20620978E-01
Pure Switching                             I                1
Dipole_Data                                R   N=           3
  0.00000000E+00  0.00000000E+00  2.96300054E-15
Quadrupole_Data                            R   N=           6
 -2.59806761E+00  0.00000000E+00 -2.59806761E+00  0.00000000E+00  0.00000000E+00
 -1.72965314E+00
Octapole_Data                              R   N=          10
  0.00000000E+00  0.00000000E+00  0.00000000E+00  0.00000000E+00 -1.34336373E-15
  0.00000000E+00 -1.34336373E-15  0.00000000E+00  0.00000000E+00 -3.16085583E-15
Hexadecapole_Data                          R   N=          15
 -2.77938019E+00  0.00000000E+00 -9.26460063E-01  0.00000000E+00 -2.77938019E+00
  0.00000000E+00  0.00000000E+00  0.00000000E+00  0.00000000E+00 -1.89476485E+00
  0.00000000E+00 -1.89476485E+00  0.00000000E+00  0.00000000E+00 -8.12183514E+00
