Jobname.Temp
SP        R                             STO-3G              
Number of atoms                            I                2
Charge                                     I                0
Multiplicity                               I                1
Number of electrons                        I                4
Number of alpha electrons                  I                2
Number of beta electrons                   I                2
Atomic numbers                             I   N=           2
           3           1
Current cartesian coordinates              R   N=           6
  0.00000000E+00  0.00000000E+00 -9.44863062E-01  0.00000000E+00  0.00000000E+00
  2.83458919E+00
Nuclear charges                            R   N=           2
  3.00000000E+00  1.00000000E+00
Number of basis functions                  I                6
Number of contracted shells                I                3
Number of primitive shells                 I                9
Highest angular momentum                   I                1
Largest degree of contraction              I                3
Shell types                                I   N=           3
           0          -1           0
Number of primitives per shell             I   N=           3
           3           3           3
Shell to atom map                          I   N=           3
           1           1           2
Primitive exponents                        R   N=           9
  1.61195750E+01  2.93620070E+00  7.94650500E-01  6.36289700E-01  1.47860100E-01
  4.80887000E-02  3.42525091E+00  6.23913730E-01  1.68855400E-01
Contraction coefficients                   R   N=           9
  1.54328970E-01  5.35328141E-01  4.44634541E-01 -9.99672298E-02  3.99512829E-01
  7.00115469E-01  1.54328971E-01  5.35328142E-01  4.44634542E-01
P(S=P) Contraction coefficients            R   N=           9
  0.00000000E+00  0.00000000E+00  0.00000000E+00  1.55916265E-01  6.07683701E-01
  3.91957378E-01  0.00000000E+00  0.00000000E+00  0.00000000E+00
Coordinates of each shell                  R   N=           9
  0.00000000E+00  0.00000000E+00 -9.44863062E-01  0.00000000E+00  0.00000000E+00
 -9.44863062E-01  0.00000000E+00  0.00000000E+00  2.83458919E+00
Overlap Matrix                             R   N=          21
  1.00000000E+00  2.41136651E-01  1.00000000E+00  0.00000000E+00  0.00000000E+00
  1.00000000E+00  0.00000000E+00  0.00000000E+00  0.00000000E+00  1.00000000E+00
  2.05058596E-17 -3.10473531E-17  0.00000000E+00  0.00000000E+00  1.00000000E+00
  2.76651421E-02  2.98699940E-01  0.00000000E+00  0.00000000E+00  4.21771556E-01
  1.00000000E+00
Core Hamiltonian Matrix                    R   N=          21
 -4.67068356E+00 -1.04838252E+00 -1.35443709E+00  0.00000000E+00  0.00000000E+00
 -1.10164930E+00  0.00000000E+00  0.00000000E+00  0.00000000E+00 -1.10164930E+00
 -1.03077947E-02 -9.89771468E-02  0.00000000E+00  0.00000000E+00 -1.17870150E+00
 -1.23797949E-01 -4.74500052E-01  0.00000000E+00  0.00000000E+00 -6.32607163E-01
 -1.26004964E+00
Orbital Coefficients CCMAN2 Alpha          R   N=          36
  9.91435209E-01  3.34111419E-02 -3.30556258E-18 -6.30695063E-16 -4.65428032E-03
 -8.13909954E-04 -1.51328095E-01  4.87713442E-01  6.99408548E-17  1.12331099E-16
  3.31532890E-01  5.81263907E-01  2.14143759E-01 -7.98387030E-01  2.63690954E-16
 -1.21936178E-15  5.98848666E-01  1.82352124E-01  2.80260460E-17  3.09391171E-16
  1.00000000E+00 -2.34256517E-16 -2.32887454E-16 -1.28819966E-16 -2.75041579E-16
  1.18675179E-15 -7.78840098E-16 -1.00000000E+00 -8.58753523E-16 -1.60386475E-16
  1.14328094E-01 -5.62923873E-01  2.41507099E-17 -3.43961811E-17 -8.80264300E-01
  9.98622689E-01
Orbital Coefficients CCMAN2 Beta           R   N=          36
 -1.51328095E-01  4.87713442E-01  6.99408548E-17  1.12331099E-16  3.31532890E-01
  5.81263907E-01  2.14143759E-01 -7.98387030E-01  2.63690954E-16 -1.21936178E-15
  5.98848666E-01  1.82352124E-01  2.80260460E-17  3.09391171E-16  1.00000000E+00
 -2.34256517E-16 -2.32887454E-16 -1.28819966E-16 -2.75041579E-16  1.18675179E-15
 -7.78840098E-16 -1.00000000E+00 -8.58753523E-16 -1.60386475E-16  1.14328094E-01
 -5.62923873E-01  2.41507099E-17 -3.43961811E-17 -8.80264300E-01  9.98622689E-01
  9.91435209E-01  3.34111419E-02 -3.30556258E-18 -6.30695063E-16 -4.65428032E-03
 -8.13909954E-04
EOMEE transition A Excitation Energies     R   N=           3
  1.08141188E-01  1.55998921E-01  1.55998921E-01
Number of Active Occ                       I                4
Number of Active Vir                       I                8
Alpha Amplitudes                           R   N=           6
 -6.39538090E-01 -6.39538090E-01  6.44846187E-01  6.44846187E-01 -6.44846187E-01
 -6.44846187E-01
Alpha J Indexes                            I   N=           4
           0           2           4           6
Alpha I Indexes                            I   N=           6
           8          28          10          30           9          29
EOMEE transition A Excitation Energies     R   N=           3
  8.49076885E-02  1.44519789E-01  1.44519790E-01
Number of Active Occ                       I                4
Number of Active Vir                       I                8
Alpha Amplitudes                           R   N=           8
 -6.68993686E-01 -1.45143505E-01  6.68993686E-01  1.45143505E-01 -6.61709271E-01
  6.61709271E-01 -6.61709271E-01  6.61709271E-01
Alpha J Indexes                            I   N=           4
           0           4           6           8
Alpha I Indexes                            I   N=           8
           8          11          28          31          10          30
           9          29
Number of independent functions            I                6
Alpha MO coefficients                      R   N=          36
  9.91435209E-01  3.34111419E-02 -3.30556258E-18 -6.30695063E-16 -4.65428032E-03
 -8.13909954E-04 -1.51328095E-01  4.87713442E-01  6.99408548E-17  1.12331099E-16
  3.31532890E-01  5.81263907E-01  2.14143759E-01 -7.98387030E-01  2.63690954E-16
 -1.21936178E-15  5.98848666E-01  1.82352124E-01  2.80260460E-17  3.09391171E-16
  1.00000000E+00 -2.34256517E-16 -2.32887454E-16 -1.28819966E-16 -2.75041579E-16
  1.18675179E-15 -7.78840098E-16 -1.00000000E+00 -8.58753523E-16 -1.60386475E-16
  1.14328094E-01 -5.62923873E-01  2.41507099E-17 -3.43961811E-17 -8.80264300E-01
  9.98622689E-01
Alpha Orbital Energies                     R   N=           6
 -2.36118788E+00 -2.50106670E-01  7.32790304E-02  1.62105667E-01  1.62105668E-01
  4.32645162E-01
Total SCF Density                          R   N=          21
  2.01924998E+00 -1.11867412E-01  6.01465738E-01  2.05635475E-16  6.04921749E-17
  1.04183371E-03 -1.47263493E-15 -4.23192954E-17  1.77477214E-18  1.04183372E-03
 -1.04641905E-01  3.21099198E-01  2.69671147E-17  1.06575717E-17  1.72960012E-01
 -1.65618225E-01  5.09963950E-01  3.66946040E-17  8.31562138E-18  2.83906951E-01
  7.23214818E-01
Pure Switching                             I                1
Dipole_Data                                R   N=           3
 -7.50748567E-16  1.48061550E-15 -4.47884827E+00
Quadrupole_Data                            R   N=           6
 -5.76001932E+00 -1.12196640E-17 -5.76001932E+00  1.49386059E-16 -8.20261505E-16
 -4.11810047E+00
Octapole_Data                              R   N=          10
 -1.63401738E-15  4.80296871E-16 -5.44672461E-16  1.44089061E-15 -2.80342146E+00
  5.60983198E-18 -2.80342146E+00 -5.83550618E-16  9.12914371E-16 -8.70649129E+00
Hexadecapole_Data                          R   N=          15
 -1.49855148E+01 -2.96676850E-17 -4.99517160E+00 -2.96676850E-17 -1.49855148E+01
  2.87673956E-16 -3.05466705E-16  9.58913188E-17 -9.16400116E-16 -7.03430247E+00
 -1.26941443E-17 -7.03430247E+00  2.15684554E-16 -1.16061336E-15 -2.56408999E+01
