Jobname.Temp
SP        R                             STO-3G              
Number of atoms                            I                3
Charge                                     I                0
Multiplicity                               I                1
Number of electrons                        I               10
Number of alpha electrons                  I                5
Number of beta electrons                   I                5
Atomic numbers                             I   N=           3
           8           1           1
Current cartesian coordinates              R   N=           9
 -3.20428069E-17  2.46458610E-17  2.54523057E-01 -1.64360542E+00 -1.76637750E-16
 -1.01809223E+00  1.64360542E+00 -2.05291378E-17 -1.01809223E+00
Nuclear charges                            R   N=           3
  8.00000000E+00  1.00000000E+00  1.00000000E+00
Number of basis functions                  I                7
Number of contracted shells                I                4
Number of primitive shells                 I               12
Highest angular momentum                   I                1
Largest degree of contraction              I                3
Shell types                                I   N=           4
           0          -1           0           0
Number of primitives per shell             I   N=           4
           3           3           3           3
Shell to atom map                          I   N=           4
           1           1           2           3
Primitive exponents                        R   N=          12
  1.30709320E+02  2.38088610E+01  6.44360830E+00  5.03315130E+00  1.16959610E+00
  3.80389000E-01  3.42525091E+00  6.23913730E-01  1.68855400E-01  3.42525091E+00
  6.23913730E-01  1.68855400E-01
Contraction coefficients                   R   N=          12
  1.54328969E-01  5.35328136E-01  4.44634536E-01 -9.99672287E-02  3.99512825E-01
  7.00115461E-01  1.54328971E-01  5.35328142E-01  4.44634542E-01  1.54328971E-01
  5.35328142E-01  4.44634542E-01
P(S=P) Contraction coefficients            R   N=          12
  0.00000000E+00  0.00000000E+00  0.00000000E+00  1.55916268E-01  6.07683714E-01
  3.91957386E-01  0.00000000E+00  0.00000000E+00  0.00000000E+00  0.00000000E+00
  0.00000000E+00  0.00000000E+00
Coordinates of each shell                  R   N=          12
 -3.20428069E-17  2.46458610E-17  2.54523057E-01 -3.20428069E-17  2.46458610E-17
  2.54523057E-01 -1.64360542E+00 -1.76637750E-16 -1.01809223E+00  1.64360542E+00
 -2.05291378E-17 -1.01809223E+00
Overlap Matrix                             R   N=          28
  1.00000000E+00  2.36703937E-01  1.00000000E+00 -2.56091065E-34 -5.47882949E-33
  1.00000000E+00 -1.86875176E-33  7.41275134E-33 -3.85452529E-65  1.00000000E+00
 -3.02973172E-17  4.93489089E-17 -3.47184774E-49  3.47184774E-49  1.00000000E+00
  3.84055925E-02  3.86138794E-01 -2.69350768E-01 -3.29859556E-17 -2.08553647E-01
  1.00000000E+00  3.84055925E-02  3.86138794E-01  2.69350768E-01 -7.40318843E-18
 -2.08553647E-01  1.80130369E-01  1.00000000E+00
Core Hamiltonian Matrix                    R   N=          28
 -3.25773953E+01 -7.57883280E+00 -9.20094321E+00  0.00000000E+00  0.00000000E+00
 -7.45957979E+00  0.00000000E+00  0.00000000E+00  0.00000000E+00 -7.34714481E+00
  1.43928628E-02  1.75900647E-01  0.00000000E+00  0.00000000E+00 -7.41455113E+00
 -1.24009675E+00 -2.90636081E+00  1.68080099E+00 -1.80746732E-17  1.34900953E+00
 -4.53914992E+00 -1.24009675E+00 -2.90636081E+00 -1.68080099E+00 -4.05658133E-18
  1.34900953E+00 -1.06279315E+00 -4.53914992E+00
Orbital Coefficients CCMAN2 Alpha          R   N=          49
 -9.94433558E-01 -2.41022592E-02 -2.84867996E-16 -1.07858679E-16  3.15207135E-03
  4.59714728E-03  4.59714728E-03 -2.39174771E-01  8.85766974E-01  5.81938961E-16
 -4.39734432E-16 -8.56012257E-02  1.44112597E-01  1.44112597E-01  9.34651838E-02
 -4.78585589E-01  2.17384030E-14 -2.01837412E-16 -7.48882671E-01  3.29021768E-01
  3.29021768E-01  2.93909407E-15 -1.51551491E-14 -6.06429360E-01 -1.51462642E-15
 -2.61184439E-14  4.52896244E-01 -4.52896244E-01 -1.17824951E-17 -3.74731655E-17
 -7.11033532E-16  1.00000000E+00 -3.09522557E-16  7.84675329E-16 -4.71517455E-16
  1.11826993E-01 -6.70500201E-01 -1.02717118E-14 -9.95961200E-17  7.36268934E-01
  7.10409140E-01  7.10409140E-01  1.33573708E-15 -7.54951657E-15  9.20477698E-01
 -1.93463787E-17  8.47238946E-15  7.32037065E-01 -7.32037065E-01
Orbital Coefficients CCMAN2 Beta           R   N=          49
 -2.39174771E-01  8.85766974E-01  5.81938961E-16 -4.39734432E-16 -8.56012257E-02
  1.44112597E-01  1.44112597E-01  9.34651838E-02 -4.78585589E-01  2.17384030E-14
 -2.01837412E-16 -7.48882671E-01  3.29021768E-01  3.29021768E-01  2.93909407E-15
 -1.51551491E-14 -6.06429360E-01 -1.51462642E-15 -2.61184439E-14  4.52896244E-01
 -4.52896244E-01 -1.17824951E-17 -3.74731655E-17 -7.11033532E-16  1.00000000E+00
 -3.09522557E-16  7.84675329E-16 -4.71517455E-16  1.11826993E-01 -6.70500201E-01
 -1.02717118E-14 -9.95961200E-17  7.36268934E-01  7.10409140E-01  7.10409140E-01
  1.33573708E-15 -7.54951657E-15  9.20477698E-01 -1.93463787E-17  8.47238946E-15
  7.32037065E-01 -7.32037065E-01 -9.94433558E-01 -2.41022592E-02 -2.84867996E-16
 -1.07858679E-16  3.15207135E-03  4.59714728E-03  4.59714728E-03
EOMEE transition A1 Excitation Energies    R   N=           1
  4.95081436E-01
Number of Active Occ                       I                8
Number of Active Vir                       I                4
Alpha Amplitudes                           R   N=           4
 -6.46680385E-01  1.99225169E-01 -6.46680385E-01  1.99225169E-01
Alpha J Indexes                            I   N=           2
           0           4
Alpha I Indexes                            I   N=           4
           4           9          22          27
EOMEE transition A2 Excitation Energies    R   N=           1
  3.95489266E-01
Number of Active Occ                       I                8
Number of Active Vir                       I                4
Alpha Amplitudes                           R   N=           2
  6.78659608E-01  6.78659608E-01
Alpha J Indexes                            I   N=           2
           0           2
Alpha I Indexes                            I   N=           2
          13          31
EOMEE transition B1 Excitation Energies    R   N=           1
  5.56793030E-01
Number of Active Occ                       I                8
Number of Active Vir                       I                4
Alpha Amplitudes                           R   N=           4
 -5.81482070E-01  3.45336670E-01 -5.81482070E-01  3.45336670E-01
Alpha J Indexes                            I   N=           2
           0           4
Alpha I Indexes                            I   N=           4
           5           8          23          26
EOMEE transition B2 Excitation Energies    R   N=           1
  3.22283338E-01
Number of Active Occ                       I                8
Number of Active Vir                       I                4
Alpha Amplitudes                           R   N=           2
  6.77737250E-01  6.77737250E-01
Alpha J Indexes                            I   N=           2
           0           2
Alpha I Indexes                            I   N=           2
          12          30
EOMEE transition A1 Excitation Energies    R   N=           1
  3.66440999E-01
Number of Active Occ                       I                8
Number of Active Vir                       I                4
Alpha Amplitudes                           R   N=           4
  6.67353200E-01  2.08527818E-01 -6.67353200E-01 -2.08527818E-01
Alpha J Indexes                            I   N=           2
           0           4
Alpha I Indexes                            I   N=           4
           4           9          22          27
EOMEE transition A2 Excitation Energies    R   N=           1
  3.61814388E-01
Number of Active Occ                       I                8
Number of Active Vir                       I                4
Alpha Amplitudes                           R   N=           2
 -6.84978117E-01  6.84978117E-01
Alpha J Indexes                            I   N=           2
           0           2
Alpha I Indexes                            I   N=           2
          13          31
EOMEE transition B1 Excitation Energies    R   N=           1
  4.29011837E-01
Number of Active Occ                       I                8
Number of Active Vir                       I                4
Alpha Amplitudes                           R   N=           4
 -5.62112093E-01 -4.21191484E-01  5.62112093E-01  4.21191484E-01
Alpha J Indexes                            I   N=           2
           0           4
Alpha I Indexes                            I   N=           4
           5           8          23          26
EOMEE transition B2 Excitation Energies    R   N=           1
  2.74435394E-01
Number of Active Occ                       I                8
Number of Active Vir                       I                4
Alpha Amplitudes                           R   N=           2
  6.86806115E-01 -6.86806115E-01
Alpha J Indexes                            I   N=           2
           0           2
Alpha I Indexes                            I   N=           2
          12          30
Number of independent functions            I                7
Alpha MO coefficients                      R   N=          49
 -9.94433558E-01 -2.41022592E-02 -2.84867996E-16 -1.07858679E-16  3.15207135E-03
  4.59714728E-03  4.59714728E-03 -2.39174771E-01  8.85766974E-01  5.81938961E-16
 -4.39734432E-16 -8.56012257E-02  1.44112597E-01  1.44112597E-01  2.93909407E-15
 -1.51551491E-14 -6.06429360E-01 -1.51462642E-15 -2.61184439E-14  4.52896244E-01
 -4.52896244E-01  9.34651838E-02 -4.78585589E-01  2.17384030E-14 -2.01837412E-16
 -7.48882671E-01  3.29021768E-01  3.29021768E-01 -1.17824951E-17 -3.74731655E-17
 -7.11033532E-16  1.00000000E+00 -3.09522557E-16  7.84675329E-16 -4.71517455E-16
  1.11826993E-01 -6.70500201E-01 -1.02717118E-14 -9.95961200E-17  7.36268934E-01
  7.10409140E-01  7.10409140E-01  1.33573708E-15 -7.54951657E-15  9.20477698E-01
 -1.93463787E-17  8.47238946E-15  7.32037065E-01 -7.32037065E-01
Alpha Orbital Energies                     R   N=           7
 -2.02622378E+01 -1.20925345E+00 -5.48624236E-01 -4.35404998E-01 -3.87223939E-01
  4.76639605E-01  5.89433332E-01
Total SCF Density                          R   N=          28
  2.11135728E+00 -4.74843319E-01  2.08170238E+00  9.06085339E-16 -1.97222824E-15
  7.57232034E-01  3.61727163E-16 -6.47689415E-16  3.72339859E-16  1.99831523E+00
 -1.00362523E-01  5.36860008E-01 -1.69046945E-16 -2.56889228E-16  1.09777841E+00
 -7.37961897E-03 -1.07400601E-01 -5.05476710E-01 -3.60213935E-17 -4.91576812E-01
  7.19276883E-01 -7.37961897E-03 -1.07400601E-01  5.05476710E-01  1.37063680E-16
 -4.91576812E-01 -1.32702232E-01  7.19276883E-01
Pure Switching                             I                1
Dipole_Data                                R   N=           3
 -8.74992213E-15  1.80567134E-15 -1.34840783E+00
Quadrupole_Data                            R   N=           6
 -4.53623368E+00 -3.08809678E-16 -6.22370634E+00  8.03947645E-15  5.22671321E-16
 -5.47513339E+00
Octapole_Data                              R   N=          10
 -1.68736453E-14  1.50415724E-16 -2.01554906E-15  6.92927231E-16 -4.64215696E-01
 -6.74658476E-17  1.11327665E-01 -5.77942083E-15  2.89430027E-16  2.01749556E-01
Hexadecapole_Data                          R   N=          15
 -8.46642380E+00 -2.38365223E-16 -2.16530704E+00 -2.85564704E-16 -3.39010298E+00
  9.26568772E-15  6.17045176E-17  1.26310607E-15  2.92276803E-17 -2.13569572E+00
 -7.98473749E-17 -1.58731893E+00  5.90628521E-15  6.88829459E-17 -5.86798859E+00
