Jobname.Temp
SP        R                             STO-3G              
Number of atoms                            I                3
Charge                                     I                0
Multiplicity                               I                1
Number of electrons                        I               10
Number of alpha electrons                  I                5
Number of beta electrons                   I                5
Atomic numbers                             I   N=           3
           8           1           1
Current cartesian coordinates              R   N=           9
 -3.20428069E-17  2.46458610E-17  2.54523057E-01 -1.64360542E+00 -1.76637750E-16
 -1.01809223E+00  1.64360542E+00 -2.05291378E-17 -1.01809223E+00
Nuclear charges                            R   N=           3
  8.00000000E+00  1.00000000E+00  1.00000000E+00
Number of basis functions                  I                7
Number of contracted shells                I                4
Number of primitive shells                 I               12
Highest angular momentum                   I                1
Largest degree of contraction              I                3
Shell types                                I   N=           4
           0          -1           0           0
Number of primitives per shell             I   N=           4
           3           3           3           3
Shell to atom map                          I   N=           4
           1           1           2           3
Primitive exponents                        R   N=          12
  1.30709320E+02  2.38088610E+01  6.44360830E+00  5.03315130E+00  1.16959610E+00
  3.80389000E-01  3.42525091E+00  6.23913730E-01  1.68855400E-01  3.42525091E+00
  6.23913730E-01  1.68855400E-01
Contraction coefficients                   R   N=          12
  1.54328969E-01  5.35328136E-01  4.44634536E-01 -9.99672287E-02  3.99512825E-01
  7.00115461E-01  1.54328971E-01  5.35328142E-01  4.44634542E-01  1.54328971E-01
  5.35328142E-01  4.44634542E-01
P(S=P) Contraction coefficients            R   N=          12
  0.00000000E+00  0.00000000E+00  0.00000000E+00  1.55916268E-01  6.07683714E-01
  3.91957386E-01  0.00000000E+00  0.00000000E+00  0.00000000E+00  0.00000000E+00
  0.00000000E+00  0.00000000E+00
Coordinates of each shell                  R   N=          12
 -3.20428069E-17  2.46458610E-17  2.54523057E-01 -3.20428069E-17  2.46458610E-17
  2.54523057E-01 -1.64360542E+00 -1.76637750E-16 -1.01809223E+00  1.64360542E+00
 -2.05291378E-17 -1.01809223E+00
Overlap Matrix                             R   N=          28
  1.00000000E+00  2.36703937E-01  1.00000000E+00 -2.56091065E-34 -5.47882949E-33
  1.00000000E+00 -1.86875176E-33  7.41275134E-33 -3.85452529E-65  1.00000000E+00
 -3.02973172E-17  4.93489089E-17 -3.47184774E-49  3.47184774E-49  1.00000000E+00
  3.84055925E-02  3.86138794E-01 -2.69350768E-01 -3.29859556E-17 -2.08553647E-01
  1.00000000E+00  3.84055925E-02  3.86138794E-01  2.69350768E-01 -7.40318843E-18
 -2.08553647E-01  1.80130369E-01  1.00000000E+00
Core Hamiltonian Matrix                    R   N=          28
 -3.25773953E+01 -7.57883280E+00 -9.20094321E+00  0.00000000E+00  0.00000000E+00
 -7.45957979E+00  0.00000000E+00  0.00000000E+00  0.00000000E+00 -7.34714481E+00
  1.43928628E-02  1.75900647E-01  0.00000000E+00  0.00000000E+00 -7.41455113E+00
 -1.24009675E+00 -2.90636081E+00  1.68080099E+00 -1.80746732E-17  1.34900953E+00
 -4.53914992E+00 -1.24009675E+00 -2.90636081E+00 -1.68080099E+00 -4.05658133E-18
  1.34900953E+00 -1.06279315E+00 -4.53914992E+00
Orbital Coefficients CCMAN2 Alpha          R   N=          49
 -9.94433558E-01 -2.41022592E-02 -4.01602644E-16 -9.39808916E-17  3.15207135E-03
  4.59714728E-03  4.59714728E-03 -2.39174771E-01  8.85766974E-01 -1.19414992E-15
 -4.39734432E-16 -8.56012257E-02  1.44112597E-01  1.44112597E-01  9.34651838E-02
 -4.78585589E-01  7.02516394E-16  9.90119211E-15 -7.48882671E-01  3.29021768E-01
  3.29021768E-01  3.43917262E-16 -1.91040887E-15 -6.06429360E-01  3.72752721E-16
 -1.55898672E-16  4.52896244E-01 -4.52896244E-01 -9.42293447E-16  4.68072245E-15
  2.87073570E-17  1.00000000E+00  6.63560607E-15 -3.30218950E-15 -2.97975255E-15
  1.11826993E-01 -6.70500201E-01  1.26216672E-14  8.42845684E-17  7.36268934E-01
  7.10409140E-01  7.10409140E-01 -1.90819582E-15  9.90874049E-15  9.20477698E-01
  3.61647726E-17 -9.42301792E-15  7.32037065E-01 -7.32037065E-01
Orbital Coefficients CCMAN2 Beta           R   N=          49
 -2.39174771E-01  8.85766974E-01 -1.19414992E-15 -4.39734432E-16 -8.56012257E-02
  1.44112597E-01  1.44112597E-01  9.34651838E-02 -4.78585589E-01  7.02516394E-16
  9.90119211E-15 -7.48882671E-01  3.29021768E-01  3.29021768E-01  3.43917262E-16
 -1.91040887E-15 -6.06429360E-01  3.72752721E-16 -1.55898672E-16  4.52896244E-01
 -4.52896244E-01 -9.42293447E-16  4.68072245E-15  2.87073570E-17  1.00000000E+00
  6.63560607E-15 -3.30218950E-15 -2.97975255E-15  1.11826993E-01 -6.70500201E-01
  1.26216672E-14  8.42845684E-17  7.36268934E-01  7.10409140E-01  7.10409140E-01
 -1.90819582E-15  9.90874049E-15  9.20477698E-01  3.61647726E-17 -9.42301792E-15
  7.32037065E-01 -7.32037065E-01 -9.94433558E-01 -2.41022592E-02 -4.01602644E-16
 -9.39808916E-17  3.15207135E-03  4.59714728E-03  4.59714728E-03
EOMEE transition A1 Excitation Energies    R   N=           1
  4.95012784E-01
Number of Active Occ                       I               10
Number of Active Vir                       I                4
Alpha Amplitudes                           R   N=           4
 -6.46698335E-01  1.98917901E-01 -6.46698335E-01  1.98917901E-01
Alpha J Indexes                            I   N=           2
           0           4
Alpha I Indexes                            I   N=           4
           8          13          30          35
EOMEE transition A2 Excitation Energies    R   N=           1
  3.95526123E-01
Number of Active Occ                       I               10
Number of Active Vir                       I                4
Alpha Amplitudes                           R   N=           2
  6.78642292E-01  6.78642292E-01
Alpha J Indexes                            I   N=           2
           0           2
Alpha I Indexes                            I   N=           2
          17          39
EOMEE transition B1 Excitation Energies    R   N=           1
  5.56786219E-01
Number of Active Occ                       I               10
Number of Active Vir                       I                4
Alpha Amplitudes                           R   N=           4
 -5.81626629E-01  3.44990493E-01 -5.81626629E-01  3.44990493E-01
Alpha J Indexes                            I   N=           2
           0           4
Alpha I Indexes                            I   N=           4
           9          12          31          34
EOMEE transition B2 Excitation Energies    R   N=           1
  3.22308622E-01
Number of Active Occ                       I               10
Number of Active Vir                       I                4
Alpha Amplitudes                           R   N=           2
  6.77752324E-01  6.77752324E-01
Alpha J Indexes                            I   N=           2
           0           2
Alpha I Indexes                            I   N=           2
          16          38
EOMEE transition A1 Excitation Energies    R   N=           1
  3.66412781E-01
Number of Active Occ                       I               10
Number of Active Vir                       I                4
Alpha Amplitudes                           R   N=           4
  6.67340174E-01  2.08523779E-01 -6.67340174E-01 -2.08523779E-01
Alpha J Indexes                            I   N=           2
           0           4
Alpha I Indexes                            I   N=           4
           8          13          30          35
EOMEE transition A2 Excitation Energies    R   N=           1
  3.61828589E-01
Number of Active Occ                       I               10
Number of Active Vir                       I                4
Alpha Amplitudes                           R   N=           2
 -6.84950247E-01  6.84950247E-01
Alpha J Indexes                            I   N=           2
           0           2
Alpha I Indexes                            I   N=           2
          17          39
EOMEE transition B1 Excitation Energies    R   N=           1
  4.29022824E-01
Number of Active Occ                       I               10
Number of Active Vir                       I                4
Alpha Amplitudes                           R   N=           4
 -5.62059254E-01 -4.21305393E-01  5.62059254E-01  4.21305393E-01
Alpha J Indexes                            I   N=           2
           0           4
Alpha I Indexes                            I   N=           4
           9          12          31          34
EOMEE transition B2 Excitation Energies    R   N=           1
  2.74433960E-01
Number of Active Occ                       I               10
Number of Active Vir                       I                4
Alpha Amplitudes                           R   N=           2
  6.86810212E-01 -6.86810212E-01
Alpha J Indexes                            I   N=           2
           0           2
Alpha I Indexes                            I   N=           2
          16          38
Number of independent functions            I                7
Alpha MO coefficients                      R   N=          49
 -9.94433558E-01 -2.41022592E-02 -4.01602644E-16 -9.39808916E-17  3.15207135E-03
  4.59714728E-03  4.59714728E-03 -2.39174771E-01  8.85766974E-01 -1.19414992E-15
 -4.39734432E-16 -8.56012257E-02  1.44112597E-01  1.44112597E-01  3.43917262E-16
 -1.91040887E-15 -6.06429360E-01  3.72752721E-16 -1.55898672E-16  4.52896244E-01
 -4.52896244E-01  9.34651838E-02 -4.78585589E-01  7.02516394E-16  9.90119211E-15
 -7.48882671E-01  3.29021768E-01  3.29021768E-01 -9.42293447E-16  4.68072245E-15
  2.87073570E-17  1.00000000E+00  6.63560607E-15 -3.30218950E-15 -2.97975255E-15
  1.11826993E-01 -6.70500201E-01  1.26216672E-14  8.42845684E-17  7.36268934E-01
  7.10409140E-01  7.10409140E-01 -1.90819582E-15  9.90874049E-15  9.20477698E-01
  3.61647726E-17 -9.42301792E-15  7.32037065E-01 -7.32037065E-01
Alpha Orbital Energies                     R   N=           7
 -2.02622378E+01 -1.20925345E+00 -5.48624236E-01 -4.35404998E-01 -3.87223939E-01
  4.76639605E-01  5.89433332E-01
Total SCF Density                          R   N=          28
  2.11140348E+00 -4.74957519E-01  2.08168245E+00  1.15682591E-15 -8.44949157E-16
  7.57162179E-01  4.08412307E-16 -1.10760815E-15 -3.82604395E-16  1.99832079E+00
 -1.00306969E-01  5.36888059E-01 -9.28731299E-16 -9.15895964E-16  1.09775883E+00
 -7.31847745E-03 -1.07395676E-01 -5.05494617E-01  2.51621600E-16 -4.91587151E-01
  7.19313215E-01 -7.31847745E-03 -1.07395676E-01  5.05494617E-01  2.33396526E-16
 -4.91587151E-01 -1.32718695E-01  7.19313215E-01
Pure Switching                             I                1
Dipole_Data                                R   N=           3
  1.29729663E-14  2.80673086E-15 -1.34822154E+00
Quadrupole_Data                            R   N=           6
 -4.53652344E+00  3.62239702E-16 -6.22374216E+00 -4.50387999E-15  1.28939745E-15
 -5.47527291E+00
Octapole_Data                              R   N=          10
  1.41723793E-14  1.92868137E-16  1.96531935E-15  9.65983861E-16 -4.64020491E-01
  4.18380613E-18  1.11360771E-01  5.43002208E-15  5.39709119E-16  2.01906352E-01
Hexadecapole_Data                          R   N=          15
 -8.46697292E+00  8.53144709E-18 -2.16536986E+00 -4.89309158E-17 -3.39014537E+00
 -7.76396926E-15  1.60166883E-16 -1.08904853E-15  2.96373434E-16 -2.13585487E+00
  1.23106652E-17 -1.58735064E+00 -4.84776702E-15  3.70664459E-16 -5.86816344E+00
