                  Welcome to Q-Chem
     A Quantum Leap Into The Future Of Chemistry


 Q-Chem 5.4 (devel), Q-Chem, Inc., Pleasanton, CA (2021)

 E. Epifanovsky,  A. T. B. Gilbert,  Xintian Feng,  Joonho Lee,  Yuezhi Mao,  
 N. Mardirossian,  P. Pokhilko,  A. White,  M. Wormit,  M. P. Coons,  
 A. L. Dempwolff,  Zhengting Gan,  D. Hait,  P. R. Horn,  L. D. Jacobson,  
 I. Kaliman,  J. Kussmann,  A. W. Lange,  Ka Un Lao,  D. S. Levine,  Jie Liu,  
 S. C. McKenzie,  A. F. Morrison,  K. Nanda,  F. Plasser,  D. R. Rehn,  
 M. L. Vidal,  Zhi-Qiang You,  Ying Zhu,  B. Alam,  B. Albrecht,  
 A. Aldossary,  E. Alguire,  J. H. Andersen,  D. Barton,  K. Begam,  A. Behn,  
 Y. A. Bernard,  E. J. Berquist,  H. Burton,  A. Carreras,  K. Carter-Fenk,  
 R. Chakraborty,  A. D. Chien,  K. D. Closser,  V. Cofer-Shabica,  
 S. Dasgupta,  Jia Deng,  M. de Wergifosse,  M. Diedenhofen,  Hainam Do,  
 S. Ehlert,  Po-Tung Fang,  S. Fatehi,  Qingguo Feng,  T. Friedhoff,  
 J. Gayvert,  Qinghui Ge,  G. Gidofalvi,  M. Goldey,  J. Gomes,  
 C. Gonzalez-Espinoza,  S. Gulania,  A. Gunina,  M. W. D. Hanson-Heine,  
 P. H. P. Harbach,  A. W. Hauser,  M. F. Herbst,  M. Hernandez Vera,  
 M. Hodecker,  Z. C. Holden,  S. Houck,  Xunkun Huang,  Kerwin Hui,  
 B. C. Huynh,  M. Ivanov,  Hyunjun Ji,  Hanjie Jiang,  B. Kaduk,  S. Kaehler,  
 K. Khistyaev,  Jaehoon Kim,  P. Klunzinger,  Z. Koczor-Benda,  
 Joong Hoon Koh,  D. Kosenkov,  L. Koulias,  T. Kowalczyk,  C. M. Krauter,  
 K. Kue,  A. Kunitsa,  T. Kus,  A. Landau,  K. V. Lawler,  D. Lefrancois,  
 S. Lehtola,  Rain Li,  Yi-Pei Li,  Jiashu Liang,  M. Liebenthal,  
 Hung-Hsuan Lin,  You-Sheng Lin,  Fenglai Liu,  Kuan-Yu Liu,  
 M. Loipersberger,  A. Luenser,  A. Manjanath,  P. Manohar,  E. Mansoor,  
 S. F. Manzer,  Shan-Ping Mao,  A. V. Marenich,  T. Markovich,  S. Mason,  
 S. A. Maurer,  P. F. McLaughlin,  M. F. S. J. Menger,  J.-M. Mewes,  
 S. A. Mewes,  P. Morgante,  J. W. Mullinax,  K. J. Oosterbaan,  G. Paran,  
 Alexander C. Paul,  Suranjan K. Paul,  F. Pavosevic,  Zheng Pei,  S. Prager,  
 E. I. Proynov,  E. Ramos,  B. Rana,  A. E. Rask,  A. Rettig,  R. M. Richard,  
 F. Rob,  E. Rossomme,  T. Scheele,  M. Scheurer,  M. Schneider,  
 N. Sergueev,  S. M. Sharada,  W. Skomorowski,  D. W. Small,  C. J. Stein,  
 Yu-Chuan Su,  E. J. Sundstrom,  Zhen Tao,  J. Thirman,  T. Tsuchimochi,  
 N. M. Tubman,  S. P. Veccham,  O. Vydrov,  J. Wenzel,  J. Witte,  A. Yamada,  
 Kun Yao,  S. Yeganeh,  S. R. Yost,  A. Zech,  Igor Ying Zhang,  Xing Zhang,  
 Yu Zhang,  D. Zuev,  A. Aspuru-Guzik,  A. T. Bell,  N. A. Besley,  
 K. B. Bravaya,  B. R. Brooks,  D. Casanova,  Jeng-Da Chai,  S. Coriani,  
 C. J. Cramer,  A. E. DePrince, III,  R. A. DiStasio Jr.,  A. Dreuw,  
 B. D. Dunietz,  T. R. Furlani,  W. A. Goddard III,  S. Grimme,  
 S. Hammes-Schiffer,  T. Head-Gordon,  W. J. Hehre,  Chao-Ping Hsu,  
 T.-C. Jagau,  Yousung Jung,  A. Klamt,  Jing Kong,  D. S. Lambrecht,  
 WanZhen Liang,  N. J. Mayhall,  C. W. McCurdy,  J. B. Neaton,  
 C. Ochsenfeld,  J. A. Parkhill,  R. Peverati,  V. A. Rassolov,  Yihan Shao,  
 L. V. Slipchenko,  T. Stauch,  R. P. Steele,  J. E. Subotnik,  
 A. J. W. Thom,  A. Tkatchenko,  D. G. Truhlar,  T. Van Voorhis,  
 T. A. Wesolowski,  K. B. Whaley,  H. L. Woodcock III,  P. M. Zimmerman,  
 S. Faraji,  P. M. W. Gill,  M. Head-Gordon,  J. M. Herbert,  A. I. Krylov

 Additional authors for Version 5.4.1: 
 S. Kotaru,  Shaozhi Li,  Xiangyuan Li,  F. Matz,  A. Molle,  Haisheng Ren,  
 Yingli Su,  Hung-Yi Tsai,  C. Utku,  Fang Wang

 Contributors to earlier versions of Q-Chem not listed above: 
 R. D. Adamson,  B. Austin,  R. Baer,  J. Baker,  G. J. O. Beran,  
 K. Brandhorst,  S. T. Brown,  E. F. C. Byrd,  A. K. Chakraborty,  
 G. K. L. Chan,  Chun-Min Chang,  Yunqing Chen,  C.-L. Cheng,  
 Siu Hung Chien,  D. M. Chipman,  D. L. Crittenden,  H. Dachsel,  
 R. J. Doerksen,  A. D. Dutoi,  R. G. Edgar,  J. Fosso-Tande,  
 L. Fusti-Molnar,  D. Ghosh,  A. Ghysels,  A. Golubeva-Zadorozhnaya,  
 J. Gonthier,  M. S. Gordon,  S. R. Gwaltney,  G. Hawkins,  J. E. Herr,  
 A. Heyden,  S. Hirata,  E. G. Hohenstein,  G. Kedziora,  F. J. Keil,  
 C. Kelley,  Jihan Kim,  R. A. King,  R. Z. Khaliullin,  P. P. Korambath,  
 W. Kurlancheek,  A. Laurent,  A. M. Lee,  M. S. Lee,  S. V. Levchenko,  
 Ching Yeh Lin,  D. Liotard,  E. Livshits,  R. C. Lochan,  I. Lotan,  
 L. A. Martinez-Martinez,  P. E. Maslen,  N. Nair,  D. P. O'Neill,  
 D. Neuhauser,  E. Neuscamman,  C. M. Oana,  R. Olivares-Amaya,  R. Olson,  
 T. M. Perrine,  B. Peters,  P. A. Pieniazek,  A. Prociuk,  Y. M. Rhee,  
 J. Ritchie,  M. A. Rohrdanz,  E. Rosta,  N. J. Russ,  H. F. Schaefer III,  
 M. W. Schmidt,  N. E. Schultz,  S. Sharma,  N. Shenvi,  C. D. Sherrill,  
 A. C. Simmonett,  A. Sodt,  T. Stein,  D. Stuck,  K. S. Thanthiriwatte,  
 V. Vanovschi,  L. Vogt,  Tao Wang,  A. Warshel,  M. A. Watson,  
 C. F. Williams,  Q. Wu,  X. Xu,  Jun Yang,  W. Zhang,  Yan Zhao

 Please cite Q-Chem as follows:
 Y. Shao et al., Mol. Phys. 113, 184-215 (2015)
 DOI: 10.1080/00268976.2014.952696

 Q-Chem 5.4.1 for Intel X86 EM64T Linux

 Parts of Q-Chem use Armadillo 9.900.5 (Nocturnal Misbehaviour).
 http://arma.sourceforge.net/

 Q-Chem begins on Mon Sep  5 11:53:43 2022  

orc44
 Host: 0

     Scratch files written to /scratch/yongbin/qchem32444//
 Processing $rem in /home/users/yongbin/software/yongbin_quantum/config/preferences:
 Processing $rem in /home/users/yongbin/.qchemrc:
 Core orbitals will be frozen

 Checking the input file for inconsistencies... 	...done.

--------------------------------------------------------------
User input:
--------------------------------------------------------------
$comment
Water molecule
$end

$molecule
0 1
O
H O 1.1 
H O 1.1 H 104.5
$end

$rem
!   n_frozen_core = 0
   print_qis = true
   BASIS                = sto-3g
!   SYMMETRY             = true
!   CC_SYMMETRY          = false
   METHOD               = eom-ccsd
   EE_SINGLETS          = [1,1,1,1] ! Compute two EOM-EE singlet excited states
   EE_TRIPLETS          = [1,1,1,1] ! Compute two EOM-EE triplet excited states
   CC_REF_PROP          = true ! Compute ground state properties
   CC_EOM_PROP          = true ! Compute excited state properties
!   CC_OSFNO             = true
   GUI                  = 2
$end
--------------------------------------------------------------
 ----------------------------------------------------------------
             Standard Nuclear Orientation (Angstroms)
    I     Atom           X                Y                Z
 ----------------------------------------------------------------
    1      O      -0.0000000000     0.0000000000     0.1346878016
    2      H      -0.8697585311    -0.0000000000    -0.5387512064
    3      H       0.8697585311    -0.0000000000    -0.5387512064
 ----------------------------------------------------------------
 Molecular Point Group                 C2v   NOp =  4
 Largest Abelian Subgroup              C2v   NOp =  4
 Nuclear Repulsion Energy =           8.00133233 hartrees
 There are        5 alpha and        5 beta electrons
 Requested basis set is STO-3G
 There are 4 shells and 7 basis functions
 Total memory of 2000 MB is distributed as follows: 
   MEM_STATIC is set to 192 MB
   QALLOC/CCMAN JOB total memory use is  1808 MB
 Warning: actual memory use might exceed 2000 MB

 Total QAlloc Memory Limit   2000 MB
 Mega-Array Size       188 MB
 MEM_STATIC part       192 MB

                       Distance Matrix (Angstroms)
             O (  1)   H (  2)
   H (  2)  1.100000
   H (  3)  1.100000  1.739517

 A cutoff of  1.0D-14 yielded     10 shell pairs
 There are        34 function pairs
 Smallest overlap matrix eigenvalue = 4.34E-01

 Scale SEOQF with 1.000000e+00/1.000000e+00/1.000000e+00

 Standard Electronic Orientation quadrupole field applied
 Nucleus-field energy     =    -0.0000000002 hartrees
 Guess from superposition of atomic densities
 Warning:  Energy on first SCF cycle will be non-variational
 SAD guess density has 10.000000 electrons

 -----------------------------------------------------------------------
  General SCF calculation program by
  Eric Jon Sundstrom, Paul Horn, Yuezhi Mao, Dmitri Zuev, Alec White,
  David Stuck, Shaama M.S., Shane Yost, Joonho Lee, David Small,
  Daniel Levine, Susi Lehtola, Hugh Burton, Evgeny Epifanovsky,
  Bang C. Huynh
 -----------------------------------------------------------------------
 Hartree-Fock
 using 20 threads for integral computing
 -------------------------------------------------------
 OpenMP Integral computing Module                
 Release: version 1.0, May 2013, Q-Chem Inc. Pittsburgh 
 -------------------------------------------------------
 A restricted SCF calculation will be
 performed using DIIS
 SCF converges when DIIS error is below 1.0e-08
 ---------------------------------------
  Cycle       Energy         DIIS error
 ---------------------------------------
    1     -74.3630289608      3.10e-01  
    2     -74.8894860734      7.23e-02  
    3     -74.9406206375      1.21e-02  
    4     -74.9417783094      1.59e-03  
    5     -74.9418025534      2.88e-05  
    6     -74.9418025639      1.03e-05  
    7     -74.9418025664      2.61e-08  
    8     -74.9418025664      5.73e-10  Convergence criterion met
 ---------------------------------------
 SCF time:   CPU 0.84s  wall 1.00s 
 SCF   energy in the final basis set =      -74.9418025664
 Total energy in the final basis set =      -74.9418025664


 ------------------------------------------------------------------------------

   CCMAN2: suite of methods based on coupled cluster
           and equation of motion theories.

   Components:
   * libvmm-1.3-trunk
     by Evgeny Epifanovsky, Ilya Kaliman.
   * libtensor-2.5-trunk
     by Evgeny Epifanovsky, Michael Wormit, Dmitry Zuev, Sam Manzer, 
        Ilya Kaliman.
   * libcc-2.5-trunk
     by Evgeny Epifanovsky, Arik Landau, Tomasz Kus, Kirill Khistyaev, 
        Dmitry Zuev, Prashant Manohar, Xintian Feng, Anna Krylov, 
        Matthew Goldey, Alec White, Thomas Jagau, Kaushik Nanda, 
        Anastasia Gunina, Alexander Kunitsa, Joonho Lee.

   CCMAN original authors:
   Anna I. Krylov, C. David Sherrill, Steven R. Gwaltney,
   Edward F. C. Byrd (2000)
   Sergey V. Levchenko, Lyudmila V. Slipchenko, Tao Wang,
   Ana-Maria C. Cristian (2003)
   Piotr A. Pieniazek, C. Melania Oana, Evgeny Epifanovsky (2007)
   Prashant Manohar (2009)

 ------------------------------------------------------------------------------


 Allocating and initializing 1808MB of RAM...
 Calculation will run on 20 cores.


 Alpha MOs, Restricted
 -- Occupied --                  
-20.262  -1.209  -0.549  -0.435  -0.387
  1 A1    2 A1    1 B1    3 A1    1 B2                                         
 -- Virtual --                   
  0.477   0.589
  4 A1    2 B1                                                                 

 Beta MOs, Restricted
 -- Occupied --                  
-20.262  -1.209  -0.549  -0.435  -0.387
  1 A1    2 A1    1 B1    3 A1    1 B2                                         
 -- Virtual --                   
  0.477   0.589
  4 A1    2 B1                                                                 

 Occupation and symmetry of molecular orbitals

 Point group: C2v (4 irreducible representations).

                           A1   A2   B1   B2    All 
 ----------------------------------------------------
 All molecular orbitals:
  - Alpha                  4    0    2    1     7   
  - Beta                   4    0    2    1     7   
 ----------------------------------------------------
 Alpha orbitals:
  - Frozen occupied        1    0    0    0     1   
  - Active occupied        2    0    1    1     4   
  - Active virtual         1    0    1    0     2   
  - Frozen virtual         0    0    0    0     0   
 ----------------------------------------------------
 Beta orbitals:
  - Frozen occupied        1    0    0    0     1   
  - Active occupied        2    0    1    1     4   
  - Active virtual         1    0    1    0     2   
  - Frozen virtual         0    0    0    0     0   
 ----------------------------------------------------

 Import integrals:   CPU 0.00 s  wall 0.00 s

 Import integrals:   CPU 0.17 s  wall 0.03 s

 Run QIS:   CPU 0.01 s  wall 0.01 s

 MP2 amplitudes:   CPU 0.03 s  wall 0.02 s

Running a double precision version
           CCSD T amplitudes will be solved using DIIS.

           Start     Size      MaxIter   EConv     TConv     
           3         7         100       1.00e-06  1.00e-04  
 ------------------------------------------------------------------------------
           Energy (a.u.)   Ediff      Tdiff       Comment
 ------------------------------------------------------------------------------
           -74.99077386                           
     1     -75.00440313   1.36e-02   2.03e-01     
     2     -75.00904768   4.64e-03   5.49e-02     
     3     -75.01087905   1.83e-03   2.10e-02     
     4     -75.01227595   1.40e-03   1.51e-02     Switched to DIIS steps.
     5     -75.01232990   5.39e-05   1.88e-03     
     6     -75.01234008   1.02e-05   5.77e-04     
     7     -75.01233950   5.87e-07   3.67e-05     
 ------------------------------------------------------------------------------
           -75.01233950                           CCSD T converged.

End of double precision
 SCF energy                 = -74.94180257
 MP2 energy                 = -74.99077386
 CCSD correlation energy    =  -0.07053693
 CCSD total energy          = -75.01233950

 CCSD  T1^2 = 0.0010  T2^2 = 0.0484  Leading amplitudes:

 Amplitude    Orbitals with energies
  0.0219935840       3 (A1) A                  ->    4 (A1) A                   
                    -0.4354                          0.4766                     
  0.0219935840       3 (A1) B                  ->    4 (A1) B                   
                    -0.4354                          0.4766                     
 -0.0032498779       2 (A1) A                  ->    4 (A1) A                   
                    -1.2093                          0.4766                     
 -0.0032498779       2 (A1) B                  ->    4 (A1) B                   
                    -1.2093                          0.4766                     

 Amplitude    Orbitals with energies
 -0.0998639193       1 (B1) A      1 (B1) B    ->    2 (B1) A      2 (B1) B     
                    -0.5486       -0.5486            0.5894        0.5894       
  0.0998639193       1 (B1) A      1 (B1) B    ->    2 (B1) B      2 (B1) A     
                    -0.5486       -0.5486            0.5894        0.5894       
  0.0998639193       1 (B1) B      1 (B1) A    ->    2 (B1) A      2 (B1) B     
                    -0.5486       -0.5486            0.5894        0.5894       
 -0.0998639193       1 (B1) B      1 (B1) A    ->    2 (B1) B      2 (B1) A     
                    -0.5486       -0.5486            0.5894        0.5894       

 Computing CCSD intermediates for later calculations in double precision
 Finished.

Running a double precision version
           CCSD Lambda amplitudes will be solved using DIIS.
           Start     Size      MaxIter   EConv     LConv     
           3         7         100       1.00e-06  1.00e-04  
 ------------------------------------------------------------------------------
            Enorm      Ldiff       Comment
 ------------------------------------------------------------------------------
     1     9.54e-03   7.56e-03     
     2     2.49e-03   2.27e-03     
     3     9.37e-04   8.01e-04     
     4     2.14e-04   4.80e-04     Switched to DIIS steps.
     5     4.27e-05   1.12e-04     
     6     6.22e-06   7.90e-06     
     7     9.31e-07   8.07e-07     
 ------------------------------------------------------------------------------
                                   CCSD Lambda converged.

 Computing density matrices in double precision...
 Computing density matrices... Done.
 Reference state properties
 Dipole moment (a.u.): 0.530504 (X 0.000000, Y 0.000000, Z -0.530504)
 R-squared (a.u.): 20.064536 (XX 8.775456, YY 4.627173, ZZ 6.661907)
 Gauge origin (a.u.): (0.000000, 0.000000, 0.000000)
 Angular momentum (a.u.) against gauge origin: 
 (X 0.000000i, Y 0.000000i, Z 0.000000i)
 Traces of the OPDMs: Tr(AA) 5.000000, Tr(BB) 5.000000
 Density matrix was written to a file for further analysis.

 CCSD calculation:   CPU 3.05 s  wall 0.84 s

        Solving for EOMEE-CCSD A1 singlet states.

Running a double precision version
        EOMEE-CCSD/MP2 right amplitudes will be solved using Davidson.
        Amplitudes will be solved using standard  algorithm.
     Hard-coded thresholds: 
     LinDepThresh=1.00e-15  NormThresh=1.00e-06  ReorthogonThresh=1.00e-02

      Roots     MaxVec    MaxIter   Precond   Conv      Shift    
      1         120       60        1         1.00e-05  0.00e+00  
 ------------------------------------------------------------------------------
      Iter ConvRoots NVecs ResNorm Current eigenvalues (eV)
 ------------------------------------------------------------------------------
      0    0      1     7.38e-02   16.3245   
      1    0      2     2.64e-02   14.1753   
      2    0      3     1.57e-03   13.5155   
      3    0      4     2.03e-04   13.4736   
      4    0      5     3.26e-05   13.4723   
      5    1      6     4.64e-06   13.4719*  

     Davidson procedure converged

 EOMEE transition 1/A1
 Total energy = -74.51725806 a.u.  Excitation energy = 13.47185101 eV.
 R0^2 = 0.0024  R1^2 = 0.9257  R2^2 = 0.0743  Res^2 = 4.64e-06
 Conv-d = yes

 Amplitude    Transitions between orbitals
 -0.6466803852       3 (A1) A                  ->    4 (A1) A                   
 -0.6466803852       3 (A1) B                  ->    4 (A1) B                   
  0.1992251685       1 (B1) A                  ->    2 (B1) A                   
  0.1992251685       1 (B1) B                  ->    2 (B1) B                   
  0.0704091961       2 (A1) A                  ->    4 (A1) A                   
  0.0704091961       2 (A1) B                  ->    4 (A1) B                   
  0.1485774662       3 (A1) A      3 (A1) B    ->    4 (A1) A      4 (A1) B     
 -0.1485774662       3 (A1) A      3 (A1) B    ->    4 (A1) B      4 (A1) A     
 -0.1485774662       3 (A1) B      3 (A1) A    ->    4 (A1) A      4 (A1) B     
  0.1485774662       3 (A1) B      3 (A1) A    ->    4 (A1) B      4 (A1) A     
  0.1255893062       3 (A1) A      3 (A1) B    ->    2 (B1) A      2 (B1) B     
 -0.1255893062       3 (A1) A      3 (A1) B    ->    2 (B1) B      2 (B1) A     
 -0.1255893062       3 (A1) B      3 (A1) A    ->    2 (B1) A      2 (B1) B     
  0.1255893062       3 (A1) B      3 (A1) A    ->    2 (B1) B      2 (B1) A     
 -0.1008074691       1 (B1) A      1 (B1) B    ->    4 (A1) A      4 (A1) B     
  0.1008074691       1 (B1) A      1 (B1) B    ->    4 (A1) B      4 (A1) A     
  0.1008074691       1 (B1) B      1 (B1) A    ->    4 (A1) A      4 (A1) B     
 -0.1008074691       1 (B1) B      1 (B1) A    ->    4 (A1) B      4 (A1) A     
  0.0717734105       3 (A1) A      1 (B1) B    ->    4 (A1) A      2 (B1) B     
 -0.0717734105       3 (A1) A      1 (B1) B    ->    2 (B1) B      4 (A1) A     
  0.0717734105       1 (B1) A      3 (A1) B    ->    2 (B1) A      4 (A1) B     
 -0.0717734105       1 (B1) A      3 (A1) B    ->    4 (A1) B      2 (B1) A     
 -0.0717734105       3 (A1) B      1 (B1) A    ->    2 (B1) A      4 (A1) B     
  0.0717734105       3 (A1) B      1 (B1) A    ->    4 (A1) B      2 (B1) A     
 -0.0717734105       1 (B1) B      3 (A1) A    ->    4 (A1) A      2 (B1) B     
  0.0717734105       1 (B1) B      3 (A1) A    ->    2 (B1) B      4 (A1) A     
  0.0602232372       3 (A1) A      1 (B1) B    ->    2 (B1) A      4 (A1) B     
 -0.0602232372       3 (A1) A      1 (B1) B    ->    4 (A1) B      2 (B1) A     
  0.0602232372       1 (B1) A      3 (A1) B    ->    4 (A1) A      2 (B1) B     
 -0.0602232372       1 (B1) A      3 (A1) B    ->    2 (B1) B      4 (A1) A     
 -0.0602232372       3 (A1) B      1 (B1) A    ->    4 (A1) A      2 (B1) B     
  0.0602232372       3 (A1) B      1 (B1) A    ->    2 (B1) B      4 (A1) A     
 -0.0602232372       1 (B1) B      3 (A1) A    ->    2 (B1) A      4 (A1) B     
  0.0602232372       1 (B1) B      3 (A1) A    ->    4 (A1) B      2 (B1) A     
 -0.0400157147       2 (A1) A      1 (B1) B    ->    4 (A1) A      2 (B1) B     
  0.0400157147       2 (A1) A      1 (B1) B    ->    2 (B1) B      4 (A1) A     
 -0.0400157147       1 (B1) A      2 (A1) B    ->    2 (B1) A      4 (A1) B     
  0.0400157147       1 (B1) A      2 (A1) B    ->    4 (A1) B      2 (B1) A     
  0.0400157147       2 (A1) B      1 (B1) A    ->    2 (B1) A      4 (A1) B     
 -0.0400157147       2 (A1) B      1 (B1) A    ->    4 (A1) B      2 (B1) A     
  0.0400157147       1 (B1) B      2 (A1) A    ->    4 (A1) A      2 (B1) B     
 -0.0400157147       1 (B1) B      2 (A1) A    ->    2 (B1) B      4 (A1) A     
 -0.0248885190       2 (A1) A      3 (A1) B    ->    4 (A1) A      4 (A1) B     
 -0.0248885190       3 (A1) A      2 (A1) B    ->    4 (A1) A      4 (A1) B     
  0.0248885190       2 (A1) A      3 (A1) B    ->    4 (A1) B      4 (A1) A     
  0.0248885190       3 (A1) A      2 (A1) B    ->    4 (A1) B      4 (A1) A     
  0.0248885190       3 (A1) B      2 (A1) A    ->    4 (A1) A      4 (A1) B     
  0.0248885190       2 (A1) B      3 (A1) A    ->    4 (A1) A      4 (A1) B     
 -0.0248885190       2 (A1) B      3 (A1) A    ->    4 (A1) B      4 (A1) A     
 -0.0248885190       3 (A1) B      2 (A1) A    ->    4 (A1) B      4 (A1) A     
  0.0236689976       2 (A1) A      3 (A1) B    ->    2 (B1) A      2 (B1) B     
  0.0236689976       3 (A1) A      2 (A1) B    ->    2 (B1) A      2 (B1) B     
 -0.0236689976       2 (A1) A      3 (A1) B    ->    2 (B1) B      2 (B1) A     
 -0.0236689976       3 (A1) A      2 (A1) B    ->    2 (B1) B      2 (B1) A     
 -0.0236689976       3 (A1) B      2 (A1) A    ->    2 (B1) A      2 (B1) B     
 -0.0236689976       2 (A1) B      3 (A1) A    ->    2 (B1) A      2 (B1) B     
  0.0236689976       2 (A1) B      3 (A1) A    ->    2 (B1) B      2 (B1) A     
  0.0236689976       3 (A1) B      2 (A1) A    ->    2 (B1) B      2 (B1) A     
 -0.0227664165       2 (A1) A      2 (A1) B    ->    2 (B1) A      2 (B1) B     
  0.0227664165       2 (A1) A      2 (A1) B    ->    2 (B1) B      2 (B1) A     
  0.0227664165       2 (A1) B      2 (A1) A    ->    2 (B1) A      2 (B1) B     
 -0.0227664165       2 (A1) B      2 (A1) A    ->    2 (B1) B      2 (B1) A     
 -0.0217430301       2 (A1) A      1 (B1) A    ->    4 (A1) A      2 (B1) A     
  0.0217430301       2 (A1) A      1 (B1) A    ->    2 (B1) A      4 (A1) A     
  0.0217430301       1 (B1) A      2 (A1) A    ->    4 (A1) A      2 (B1) A     
 -0.0217430301       1 (B1) A      2 (A1) A    ->    2 (B1) A      4 (A1) A     
 -0.0217430301       2 (A1) B      1 (B1) B    ->    4 (A1) B      2 (B1) B     
  0.0217430301       2 (A1) B      1 (B1) B    ->    2 (B1) B      4 (A1) B     
  0.0217430301       1 (B1) B      2 (A1) B    ->    4 (A1) B      2 (B1) B     
 -0.0217430301       1 (B1) B      2 (A1) B    ->    2 (B1) B      4 (A1) B     
 -0.0201195341       1 (B2) A      1 (B2) B    ->    2 (B1) A      2 (B1) B     
  0.0201195341       1 (B2) A      1 (B2) B    ->    2 (B1) B      2 (B1) A     
  0.0201195341       1 (B2) B      1 (B2) A    ->    2 (B1) A      2 (B1) B     
 -0.0201195341       1 (B2) B      1 (B2) A    ->    2 (B1) B      2 (B1) A     
 -0.0183383431       2 (A1) A      1 (B1) B    ->    2 (B1) A      4 (A1) B     
  0.0183383431       2 (A1) A      1 (B1) B    ->    4 (A1) B      2 (B1) A     
 -0.0183383431       1 (B1) A      2 (A1) B    ->    4 (A1) A      2 (B1) B     
  0.0183383431       1 (B1) A      2 (A1) B    ->    2 (B1) B      4 (A1) A     
  0.0183383431       2 (A1) B      1 (B1) A    ->    4 (A1) A      2 (B1) B     
 -0.0183383431       2 (A1) B      1 (B1) A    ->    2 (B1) B      4 (A1) A     
  0.0183383431       1 (B1) B      2 (A1) A    ->    2 (B1) A      4 (A1) B     
 -0.0183383431       1 (B1) B      2 (A1) A    ->    4 (A1) B      2 (B1) A     
  0.0155520619       2 (A1) A      2 (A1) B    ->    4 (A1) A      4 (A1) B     
 -0.0155520619       2 (A1) A      2 (A1) B    ->    4 (A1) B      4 (A1) A     
 -0.0155520619       2 (A1) B      2 (A1) A    ->    4 (A1) A      4 (A1) B     
  0.0155520619       2 (A1) B      2 (A1) A    ->    4 (A1) B      4 (A1) A     
  0.0113430088       3 (A1) A      1 (B1) A    ->    4 (A1) A      2 (B1) A     
 -0.0113430088       3 (A1) A      1 (B1) A    ->    2 (B1) A      4 (A1) A     
 -0.0113430088       1 (B1) A      3 (A1) A    ->    4 (A1) A      2 (B1) A     
  0.0113430088       1 (B1) A      3 (A1) A    ->    2 (B1) A      4 (A1) A     
  0.0113430088       3 (A1) B      1 (B1) B    ->    4 (A1) B      2 (B1) B     
 -0.0113430088       3 (A1) B      1 (B1) B    ->    2 (B1) B      4 (A1) B     
 -0.0113430088       1 (B1) B      3 (A1) B    ->    4 (A1) B      2 (B1) B     
  0.0113430088       1 (B1) B      3 (A1) B    ->    2 (B1) B      4 (A1) B     
  0.0095963635       1 (B1) A      1 (B1) B    ->    2 (B1) A      2 (B1) B     
 -0.0095963635       1 (B1) A      1 (B1) B    ->    2 (B1) B      2 (B1) A     
 -0.0095963635       1 (B1) B      1 (B1) A    ->    2 (B1) A      2 (B1) B     
  0.0095963635       1 (B1) B      1 (B1) A    ->    2 (B1) B      2 (B1) A     
 -0.0071955547       1 (B2) A      1 (B2) B    ->    4 (A1) A      4 (A1) B     
  0.0071955547       1 (B2) A      1 (B2) B    ->    4 (A1) B      4 (A1) A     
  0.0071955547       1 (B2) B      1 (B2) A    ->    4 (A1) A      4 (A1) B     
 -0.0071955547       1 (B2) B      1 (B2) A    ->    4 (A1) B      4 (A1) A     

              Summary of significant orbitals:

               Number  Type             Irrep      Energy
               2       Occ  Alpha       2 (A1)     -1.2093
               4       Occ  Alpha       3 (A1)     -0.4354
               3       Occ  Alpha       1 (B1)     -0.5486
               5       Occ  Alpha       1 (B2)     -0.3872
               2       Occ  Beta        2 (A1)     -1.2093
               4       Occ  Beta        3 (A1)     -0.4354
               3       Occ  Beta        1 (B1)     -0.5486
               5       Occ  Beta        1 (B2)     -0.3872
               6       Vir  Alpha       4 (A1)      0.4766
               7       Vir  Alpha       2 (B1)      0.5894
               6       Vir  Beta        4 (A1)      0.4766
               7       Vir  Beta        2 (B1)      0.5894


 EEs and amplitudes of EOMEE has be exported to fchk file
Running a double precision version
      EOM-CCSD/MP2 left amplitudes will be solved using Davidson.
        Amplitudes will be solved using MOM  algorithm.
     Hard-coded thresholds: 
     LinDepThresh=1.00e-15  NormThresh=1.00e-06  ReorthogonThresh=1.00e-02

      Roots     MaxVec    MaxIter   Precond   Conv      Shift    
      1         120       60        1         1.00e-05  0.00e+00  
 ------------------------------------------------------------------------------
      Iter ConvRoots NVecs ResNorm Current eigenvalues (eV)
 ------------------------------------------------------------------------------
      0    0      1     9.17e-04   13.4719   
      1    0      2     1.46e-04   13.4715   
      2    0      3     1.37e-05   13.4716   
      3    1      4     1.59e-06   13.4717*  

     Davidson procedure converged

 Excited state properties for  EOMEE-CCSD transition 1/A1
 Dipole moment (a.u.): 0.039901 (X 0.000000, Y 0.000000, Z 0.039901)
 R-squared (a.u.): 20.701579 (XX 9.535389, YY 4.644311, ZZ 6.521879)
 Gauge origin (a.u.): (0.000000, 0.000000, 0.000000)
 Angular momentum (a.u.) against gauge origin: 
 (X 0.000000i, Y 0.000000i, Z 0.000000i)
 Traces of the OPDMs: Tr(AA) 5.000000, Tr(BB) 5.000000

        Solving for EOMEE-CCSD A2 singlet states.

Running a double precision version
        EOMEE-CCSD/MP2 right amplitudes will be solved using Davidson.
        Amplitudes will be solved using standard  algorithm.
     Hard-coded thresholds: 
     LinDepThresh=1.00e-15  NormThresh=1.00e-06  ReorthogonThresh=1.00e-02

      Roots     MaxVec    MaxIter   Precond   Conv      Shift    
      1         120       60        1         1.00e-05  0.00e+00  
 ------------------------------------------------------------------------------
      Iter ConvRoots NVecs ResNorm Current eigenvalues (eV)
 ------------------------------------------------------------------------------
      0    0      1     4.65e-02   12.4120   
      1    0      2     4.88e-03   10.8393   
      2    0      3     1.40e-04   10.7618   
      3    1      4     4.05e-06   10.7618*  

     Davidson procedure converged

 EOMEE transition 1/A2
 Total energy = -74.61685023 a.u.  Excitation energy = 10.76181024 eV.
 R0^2 = 0.0000  R1^2 = 0.9212  R2^2 = 0.0788  Res^2 = 4.05e-06
 Conv-d = yes

 Amplitude    Transitions between orbitals
  0.6786596084       1 (B2) A                  ->    2 (B1) A                   
  0.6786596084       1 (B2) B                  ->    2 (B1) B                   
 -0.1095331429       1 (B1) A      1 (B2) B    ->    2 (B1) A      2 (B1) B     
  0.1095331429       1 (B1) A      1 (B2) B    ->    2 (B1) B      2 (B1) A     
 -0.1095331429       1 (B2) A      1 (B1) B    ->    2 (B1) A      2 (B1) B     
  0.1095331429       1 (B2) A      1 (B1) B    ->    2 (B1) B      2 (B1) A     
  0.1095331429       1 (B1) B      1 (B2) A    ->    2 (B1) A      2 (B1) B     
 -0.1095331429       1 (B1) B      1 (B2) A    ->    2 (B1) B      2 (B1) A     
  0.1095331429       1 (B2) B      1 (B1) A    ->    2 (B1) A      2 (B1) B     
 -0.1095331429       1 (B2) B      1 (B1) A    ->    2 (B1) B      2 (B1) A     
 -0.0961277430       3 (A1) A      1 (B2) B    ->    4 (A1) A      2 (B1) B     
  0.0961277430       3 (A1) A      1 (B2) B    ->    2 (B1) B      4 (A1) A     
 -0.0961277430       1 (B2) A      3 (A1) B    ->    2 (B1) A      4 (A1) B     
  0.0961277430       1 (B2) A      3 (A1) B    ->    4 (A1) B      2 (B1) A     
  0.0961277430       3 (A1) B      1 (B2) A    ->    2 (B1) A      4 (A1) B     
 -0.0961277430       3 (A1) B      1 (B2) A    ->    4 (A1) B      2 (B1) A     
  0.0961277430       1 (B2) B      3 (A1) A    ->    4 (A1) A      2 (B1) B     
 -0.0961277430       1 (B2) B      3 (A1) A    ->    2 (B1) B      4 (A1) A     
 -0.0901654130       3 (A1) A      1 (B2) B    ->    2 (B1) A      4 (A1) B     
  0.0901654130       3 (A1) A      1 (B2) B    ->    4 (A1) B      2 (B1) A     
 -0.0901654130       1 (B2) A      3 (A1) B    ->    4 (A1) A      2 (B1) B     
  0.0901654130       1 (B2) A      3 (A1) B    ->    2 (B1) B      4 (A1) A     
  0.0901654130       3 (A1) B      1 (B2) A    ->    4 (A1) A      2 (B1) B     
 -0.0901654130       3 (A1) B      1 (B2) A    ->    2 (B1) B      4 (A1) A     
  0.0901654130       1 (B2) B      3 (A1) A    ->    2 (B1) A      4 (A1) B     
 -0.0901654130       1 (B2) B      3 (A1) A    ->    4 (A1) B      2 (B1) A     
 -0.0809091920       1 (B1) A      1 (B2) B    ->    4 (A1) A      4 (A1) B     
  0.0809091920       1 (B1) A      1 (B2) B    ->    4 (A1) B      4 (A1) A     
 -0.0809091920       1 (B2) A      1 (B1) B    ->    4 (A1) A      4 (A1) B     
  0.0809091920       1 (B2) A      1 (B1) B    ->    4 (A1) B      4 (A1) A     
  0.0809091920       1 (B1) B      1 (B2) A    ->    4 (A1) A      4 (A1) B     
 -0.0809091920       1 (B1) B      1 (B2) A    ->    4 (A1) B      4 (A1) A     
  0.0809091920       1 (B2) B      1 (B1) A    ->    4 (A1) A      4 (A1) B     
 -0.0809091920       1 (B2) B      1 (B1) A    ->    4 (A1) B      4 (A1) A     
 -0.0422506605       2 (A1) A      1 (B2) B    ->    2 (B1) A      4 (A1) B     
  0.0422506605       2 (A1) A      1 (B2) B    ->    4 (A1) B      2 (B1) A     
 -0.0422506605       1 (B2) A      2 (A1) B    ->    4 (A1) A      2 (B1) B     
  0.0422506605       1 (B2) A      2 (A1) B    ->    2 (B1) B      4 (A1) A     
  0.0422506605       2 (A1) B      1 (B2) A    ->    4 (A1) A      2 (B1) B     
 -0.0422506605       2 (A1) B      1 (B2) A    ->    2 (B1) B      4 (A1) A     
  0.0422506605       1 (B2) B      2 (A1) A    ->    2 (B1) A      4 (A1) B     
 -0.0422506605       1 (B2) B      2 (A1) A    ->    4 (A1) B      2 (B1) A     
 -0.0410886536       2 (A1) A      1 (B2) B    ->    4 (A1) A      2 (B1) B     
  0.0410886536       2 (A1) A      1 (B2) B    ->    2 (B1) B      4 (A1) A     
 -0.0410886536       1 (B2) A      2 (A1) B    ->    2 (B1) A      4 (A1) B     
  0.0410886536       1 (B2) A      2 (A1) B    ->    4 (A1) B      2 (B1) A     
  0.0410886536       2 (A1) B      1 (B2) A    ->    2 (B1) A      4 (A1) B     
 -0.0410886536       2 (A1) B      1 (B2) A    ->    4 (A1) B      2 (B1) A     
  0.0410886536       1 (B2) B      2 (A1) A    ->    4 (A1) A      2 (B1) B     
 -0.0410886536       1 (B2) B      2 (A1) A    ->    2 (B1) B      4 (A1) A     
 -0.0056271096       3 (A1) A      1 (B2) A    ->    4 (A1) A      2 (B1) A     
  0.0056271096       3 (A1) A      1 (B2) A    ->    2 (B1) A      4 (A1) A     
  0.0056271096       1 (B2) A      3 (A1) A    ->    4 (A1) A      2 (B1) A     
 -0.0056271096       1 (B2) A      3 (A1) A    ->    2 (B1) A      4 (A1) A     
 -0.0056271096       3 (A1) B      1 (B2) B    ->    4 (A1) B      2 (B1) B     
  0.0056271096       3 (A1) B      1 (B2) B    ->    2 (B1) B      4 (A1) B     
  0.0056271096       1 (B2) B      3 (A1) B    ->    4 (A1) B      2 (B1) B     
 -0.0056271096       1 (B2) B      3 (A1) B    ->    2 (B1) B      4 (A1) B     
  0.0013871996       2 (A1) A      1 (B2) A    ->    4 (A1) A      2 (B1) A     
 -0.0013871996       2 (A1) A      1 (B2) A    ->    2 (B1) A      4 (A1) A     
 -0.0013871996       1 (B2) A      2 (A1) A    ->    4 (A1) A      2 (B1) A     
  0.0013871996       1 (B2) A      2 (A1) A    ->    2 (B1) A      4 (A1) A     
  0.0013871996       2 (A1) B      1 (B2) B    ->    4 (A1) B      2 (B1) B     
 -0.0013871996       2 (A1) B      1 (B2) B    ->    2 (B1) B      4 (A1) B     
 -0.0013871996       1 (B2) B      2 (A1) B    ->    4 (A1) B      2 (B1) B     
  0.0013871996       1 (B2) B      2 (A1) B    ->    2 (B1) B      4 (A1) B     

              Summary of significant orbitals:

               Number  Type             Irrep      Energy
               2       Occ  Alpha       2 (A1)     -1.2093
               4       Occ  Alpha       3 (A1)     -0.4354
               3       Occ  Alpha       1 (B1)     -0.5486
               5       Occ  Alpha       1 (B2)     -0.3872
               2       Occ  Beta        2 (A1)     -1.2093
               4       Occ  Beta        3 (A1)     -0.4354
               3       Occ  Beta        1 (B1)     -0.5486
               5       Occ  Beta        1 (B2)     -0.3872
               6       Vir  Alpha       4 (A1)      0.4766
               7       Vir  Alpha       2 (B1)      0.5894
               6       Vir  Beta        4 (A1)      0.4766
               7       Vir  Beta        2 (B1)      0.5894


 EEs and amplitudes of EOMEE has be exported to fchk file
Running a double precision version
      EOM-CCSD/MP2 left amplitudes will be solved using Davidson.
        Amplitudes will be solved using MOM  algorithm.
     Hard-coded thresholds: 
     LinDepThresh=1.00e-15  NormThresh=1.00e-06  ReorthogonThresh=1.00e-02

      Roots     MaxVec    MaxIter   Precond   Conv      Shift    
      1         120       60        1         1.00e-05  0.00e+00  
 ------------------------------------------------------------------------------
      Iter ConvRoots NVecs ResNorm Current eigenvalues (eV)
 ------------------------------------------------------------------------------
      0    0      1     4.73e-04   10.7618   
      1    0      2     6.89e-05   10.7616   
      2    1      3     1.45e-06   10.7617*  

     Davidson procedure converged

 Excited state properties for  EOMEE-CCSD transition 1/A2
 Dipole moment (a.u.): 0.208121 (X 0.000000, Y 0.000000, Z -0.208121)
 R-squared (a.u.): 21.249453 (XX 10.051608, YY 4.037146, ZZ 7.160699)
 Gauge origin (a.u.): (0.000000, 0.000000, 0.000000)
 Angular momentum (a.u.) against gauge origin: 
 (X 0.000000i, Y 0.000000i, Z 0.000000i)
 Traces of the OPDMs: Tr(AA) 5.000000, Tr(BB) 5.000000

        Solving for EOMEE-CCSD B1 singlet states.

Running a double precision version
        EOMEE-CCSD/MP2 right amplitudes will be solved using Davidson.
        Amplitudes will be solved using standard  algorithm.
     Hard-coded thresholds: 
     LinDepThresh=1.00e-15  NormThresh=1.00e-06  ReorthogonThresh=1.00e-02

      Roots     MaxVec    MaxIter   Precond   Conv      Shift    
      1         120       60        1         1.00e-05  0.00e+00  
 ------------------------------------------------------------------------------
      Iter ConvRoots NVecs ResNorm Current eigenvalues (eV)
 ------------------------------------------------------------------------------
      0    0      1     5.01e-02   17.5498   
      1    0      2     1.81e-02   16.2650   
      2    0      3     3.19e-03   15.3234   
      3    0      4     1.04e-03   15.1839   
      4    0      5     3.92e-05   15.1515   
      5    1      6     2.04e-06   15.1511*  

     Davidson procedure converged

 EOMEE transition 1/B1
 Total energy = -74.45554647 a.u.  Excitation energy = 15.15110888 eV.
 R0^2 = 0.0000  R1^2 = 0.9150  R2^2 = 0.0850  Res^2 = 2.04e-06
 Conv-d = yes

 Amplitude    Transitions between orbitals
 -0.5814820704       3 (A1) A                  ->    2 (B1) A                   
 -0.5814820704       3 (A1) B                  ->    2 (B1) B                   
  0.3453366703       1 (B1) A                  ->    4 (A1) A                   
  0.3453366703       1 (B1) B                  ->    4 (A1) B                   
  0.0119235424       2 (A1) A                  ->    2 (B1) A                   
  0.0119235424       2 (A1) B                  ->    2 (B1) B                   
  0.1486177797       3 (A1) A      3 (A1) B    ->    4 (A1) A      2 (B1) B     
  0.1486177797       3 (A1) A      3 (A1) B    ->    2 (B1) A      4 (A1) B     
 -0.1486177797       3 (A1) A      3 (A1) B    ->    4 (A1) B      2 (B1) A     
 -0.1486177797       3 (A1) A      3 (A1) B    ->    2 (B1) B      4 (A1) A     
 -0.1486177797       3 (A1) B      3 (A1) A    ->    4 (A1) A      2 (B1) B     
 -0.1486177797       3 (A1) B      3 (A1) A    ->    2 (B1) A      4 (A1) B     
  0.1486177797       3 (A1) B      3 (A1) A    ->    4 (A1) B      2 (B1) A     
  0.1486177797       3 (A1) B      3 (A1) A    ->    2 (B1) B      4 (A1) A     
  0.1017237504       3 (A1) A      1 (B1) B    ->    4 (A1) A      4 (A1) B     
 -0.1017237504       3 (A1) A      1 (B1) B    ->    4 (A1) B      4 (A1) A     
  0.1017237504       1 (B1) A      3 (A1) B    ->    4 (A1) A      4 (A1) B     
 -0.1017237504       1 (B1) A      3 (A1) B    ->    4 (A1) B      4 (A1) A     
 -0.1017237504       3 (A1) B      1 (B1) A    ->    4 (A1) A      4 (A1) B     
  0.1017237504       3 (A1) B      1 (B1) A    ->    4 (A1) B      4 (A1) A     
 -0.1017237504       1 (B1) B      3 (A1) A    ->    4 (A1) A      4 (A1) B     
  0.1017237504       1 (B1) B      3 (A1) A    ->    4 (A1) B      4 (A1) A     
 -0.0795518126       1 (B1) A      1 (B1) B    ->    4 (A1) A      2 (B1) B     
 -0.0795518126       1 (B1) A      1 (B1) B    ->    2 (B1) A      4 (A1) B     
  0.0795518126       1 (B1) A      1 (B1) B    ->    4 (A1) B      2 (B1) A     
  0.0795518126       1 (B1) A      1 (B1) B    ->    2 (B1) B      4 (A1) A     
  0.0795518126       1 (B1) B      1 (B1) A    ->    4 (A1) A      2 (B1) B     
  0.0795518126       1 (B1) B      1 (B1) A    ->    2 (B1) A      4 (A1) B     
 -0.0795518126       1 (B1) B      1 (B1) A    ->    4 (A1) B      2 (B1) A     
 -0.0795518126       1 (B1) B      1 (B1) A    ->    2 (B1) B      4 (A1) A     
 -0.0471998429       2 (A1) A      1 (B1) B    ->    2 (B1) A      2 (B1) B     
  0.0471998429       2 (A1) A      1 (B1) B    ->    2 (B1) B      2 (B1) A     
 -0.0471998429       1 (B1) A      2 (A1) B    ->    2 (B1) A      2 (B1) B     
  0.0471998429       1 (B1) A      2 (A1) B    ->    2 (B1) B      2 (B1) A     
  0.0471998429       2 (A1) B      1 (B1) A    ->    2 (B1) A      2 (B1) B     
 -0.0471998429       2 (A1) B      1 (B1) A    ->    2 (B1) B      2 (B1) A     
  0.0471998429       1 (B1) B      2 (A1) A    ->    2 (B1) A      2 (B1) B     
 -0.0471998429       1 (B1) B      2 (A1) A    ->    2 (B1) B      2 (B1) A     
  0.0237824826       2 (A1) A      3 (A1) B    ->    4 (A1) A      2 (B1) B     
  0.0237824826       3 (A1) A      2 (A1) B    ->    2 (B1) A      4 (A1) B     
 -0.0237824826       3 (A1) A      2 (A1) B    ->    4 (A1) B      2 (B1) A     
 -0.0237824826       2 (A1) A      3 (A1) B    ->    2 (B1) B      4 (A1) A     
 -0.0237824826       3 (A1) B      2 (A1) A    ->    4 (A1) A      2 (B1) B     
 -0.0237824826       2 (A1) B      3 (A1) A    ->    2 (B1) A      4 (A1) B     
  0.0237824826       2 (A1) B      3 (A1) A    ->    4 (A1) B      2 (B1) A     
  0.0237824826       3 (A1) B      2 (A1) A    ->    2 (B1) B      4 (A1) A     
  0.0151088713       2 (A1) A      1 (B1) B    ->    4 (A1) A      4 (A1) B     
 -0.0151088713       2 (A1) A      1 (B1) B    ->    4 (A1) B      4 (A1) A     
  0.0151088713       1 (B1) A      2 (A1) B    ->    4 (A1) A      4 (A1) B     
 -0.0151088713       1 (B1) A      2 (A1) B    ->    4 (A1) B      4 (A1) A     
 -0.0151088713       2 (A1) B      1 (B1) A    ->    4 (A1) A      4 (A1) B     
  0.0151088713       2 (A1) B      1 (B1) A    ->    4 (A1) B      4 (A1) A     
 -0.0151088713       1 (B1) B      2 (A1) A    ->    4 (A1) A      4 (A1) B     
  0.0151088713       1 (B1) B      2 (A1) A    ->    4 (A1) B      4 (A1) A     
 -0.0146963326       1 (B2) A      1 (B2) B    ->    4 (A1) A      2 (B1) B     
 -0.0146963326       1 (B2) A      1 (B2) B    ->    2 (B1) A      4 (A1) B     
  0.0146963326       1 (B2) A      1 (B2) B    ->    4 (A1) B      2 (B1) A     
  0.0146963326       1 (B2) A      1 (B2) B    ->    2 (B1) B      4 (A1) A     
  0.0146963326       1 (B2) B      1 (B2) A    ->    4 (A1) A      2 (B1) B     
  0.0146963326       1 (B2) B      1 (B2) A    ->    2 (B1) A      4 (A1) B     
 -0.0146963326       1 (B2) B      1 (B2) A    ->    4 (A1) B      2 (B1) A     
 -0.0146963326       1 (B2) B      1 (B2) A    ->    2 (B1) B      4 (A1) A     
  0.0144656828       2 (A1) A      3 (A1) A    ->    4 (A1) A      2 (B1) A     
 -0.0144656828       3 (A1) A      2 (A1) A    ->    4 (A1) A      2 (B1) A     
 -0.0144656828       2 (A1) A      3 (A1) A    ->    2 (B1) A      4 (A1) A     
  0.0144656828       3 (A1) A      2 (A1) A    ->    2 (B1) A      4 (A1) A     
  0.0144656828       2 (A1) B      3 (A1) B    ->    4 (A1) B      2 (B1) B     
 -0.0144656828       3 (A1) B      2 (A1) B    ->    4 (A1) B      2 (B1) B     
 -0.0144656828       2 (A1) B      3 (A1) B    ->    2 (B1) B      4 (A1) B     
  0.0144656828       3 (A1) B      2 (A1) B    ->    2 (B1) B      4 (A1) B     
 -0.0130209972       3 (A1) A      1 (B1) B    ->    2 (B1) A      2 (B1) B     
  0.0130209972       3 (A1) A      1 (B1) B    ->    2 (B1) B      2 (B1) A     
 -0.0130209972       1 (B1) A      3 (A1) B    ->    2 (B1) A      2 (B1) B     
  0.0130209972       1 (B1) A      3 (A1) B    ->    2 (B1) B      2 (B1) A     
  0.0130209972       3 (A1) B      1 (B1) A    ->    2 (B1) A      2 (B1) B     
 -0.0130209972       3 (A1) B      1 (B1) A    ->    2 (B1) B      2 (B1) A     
  0.0130209972       1 (B1) B      3 (A1) A    ->    2 (B1) A      2 (B1) B     
 -0.0130209972       1 (B1) B      3 (A1) A    ->    2 (B1) B      2 (B1) A     
  0.0094918727       3 (A1) A      2 (A1) B    ->    4 (A1) A      2 (B1) B     
  0.0094918727       2 (A1) A      3 (A1) B    ->    2 (B1) A      4 (A1) B     
 -0.0094918727       2 (A1) A      3 (A1) B    ->    4 (A1) B      2 (B1) A     
 -0.0094918727       3 (A1) A      2 (A1) B    ->    2 (B1) B      4 (A1) A     
 -0.0094918727       2 (A1) B      3 (A1) A    ->    4 (A1) A      2 (B1) B     
 -0.0094918727       3 (A1) B      2 (A1) A    ->    2 (B1) A      4 (A1) B     
  0.0094918727       3 (A1) B      2 (A1) A    ->    4 (A1) B      2 (B1) A     
  0.0094918727       2 (A1) B      3 (A1) A    ->    2 (B1) B      4 (A1) A     
 -0.0029947552       2 (A1) A      2 (A1) B    ->    4 (A1) A      2 (B1) B     
 -0.0029947552       2 (A1) A      2 (A1) B    ->    2 (B1) A      4 (A1) B     
  0.0029947552       2 (A1) A      2 (A1) B    ->    4 (A1) B      2 (B1) A     
  0.0029947552       2 (A1) A      2 (A1) B    ->    2 (B1) B      4 (A1) A     
  0.0029947552       2 (A1) B      2 (A1) A    ->    4 (A1) A      2 (B1) B     
  0.0029947552       2 (A1) B      2 (A1) A    ->    2 (B1) A      4 (A1) B     
 -0.0029947552       2 (A1) B      2 (A1) A    ->    4 (A1) B      2 (B1) A     
 -0.0029947552       2 (A1) B      2 (A1) A    ->    2 (B1) B      4 (A1) A     

              Summary of significant orbitals:

               Number  Type             Irrep      Energy
               2       Occ  Alpha       2 (A1)     -1.2093
               4       Occ  Alpha       3 (A1)     -0.4354
               3       Occ  Alpha       1 (B1)     -0.5486
               5       Occ  Alpha       1 (B2)     -0.3872
               2       Occ  Beta        2 (A1)     -1.2093
               4       Occ  Beta        3 (A1)     -0.4354
               3       Occ  Beta        1 (B1)     -0.5486
               5       Occ  Beta        1 (B2)     -0.3872
               6       Vir  Alpha       4 (A1)      0.4766
               7       Vir  Alpha       2 (B1)      0.5894
               6       Vir  Beta        4 (A1)      0.4766
               7       Vir  Beta        2 (B1)      0.5894


 EEs and amplitudes of EOMEE has be exported to fchk file
Running a double precision version
      EOM-CCSD/MP2 left amplitudes will be solved using Davidson.
        Amplitudes will be solved using MOM  algorithm.
     Hard-coded thresholds: 
     LinDepThresh=1.00e-15  NormThresh=1.00e-06  ReorthogonThresh=1.00e-02

      Roots     MaxVec    MaxIter   Precond   Conv      Shift    
      1         120       60        1         1.00e-05  0.00e+00  
 ------------------------------------------------------------------------------
      Iter ConvRoots NVecs ResNorm Current eigenvalues (eV)
 ------------------------------------------------------------------------------
      0    0      1     5.33e-04   15.1511   
      1    0      2     6.40e-05   15.1509   
      2    1      3     2.97e-06   15.1510*  

     Davidson procedure converged

 Excited state properties for  EOMEE-CCSD transition 1/B1
 Dipole moment (a.u.): 0.142836 (X 0.000000, Y 0.000000, Z -0.142836)
 R-squared (a.u.): 20.687478 (XX 9.545866, YY 4.595187, ZZ 6.546426)
 Gauge origin (a.u.): (0.000000, 0.000000, 0.000000)
 Angular momentum (a.u.) against gauge origin: 
 (X 0.000000i, Y 0.000000i, Z 0.000000i)
 Traces of the OPDMs: Tr(AA) 5.000000, Tr(BB) 5.000000

        Solving for EOMEE-CCSD B2 singlet states.

Running a double precision version
        EOMEE-CCSD/MP2 right amplitudes will be solved using Davidson.
        Amplitudes will be solved using standard  algorithm.
     Hard-coded thresholds: 
     LinDepThresh=1.00e-15  NormThresh=1.00e-06  ReorthogonThresh=1.00e-02

      Roots     MaxVec    MaxIter   Precond   Conv      Shift    
      1         120       60        1         1.00e-05  0.00e+00  
 ------------------------------------------------------------------------------
      Iter ConvRoots NVecs ResNorm Current eigenvalues (eV)
 ------------------------------------------------------------------------------
      0    0      1     5.82e-02   10.6985   
      1    0      2     4.16e-03   8.8420   
      2    0      3     1.50e-04   8.7695   
      3    0      4     1.38e-05   8.7698   
      4    1      5     9.64e-07   8.7698*  

     Davidson procedure converged

 EOMEE transition 1/B2
 Total energy = -74.69005616 a.u.  Excitation energy = 8.76977563 eV.
 R0^2 = 0.0000  R1^2 = 0.9187  R2^2 = 0.0813  Res^2 = 9.64e-07
 Conv-d = yes

 Amplitude    Transitions between orbitals
  0.6777372505       1 (B2) A                  ->    4 (A1) A                   
  0.6777372505       1 (B2) B                  ->    4 (A1) B                   
 -0.1135900216       1 (B1) A      1 (B2) B    ->    2 (B1) A      4 (A1) B     
  0.1135900216       1 (B1) A      1 (B2) B    ->    4 (A1) B      2 (B1) A     
 -0.1135900216       1 (B2) A      1 (B1) B    ->    4 (A1) A      2 (B1) B     
  0.1135900216       1 (B2) A      1 (B1) B    ->    2 (B1) B      4 (A1) A     
  0.1135900216       1 (B1) B      1 (B2) A    ->    4 (A1) A      2 (B1) B     
 -0.1135900216       1 (B1) B      1 (B2) A    ->    2 (B1) B      4 (A1) A     
  0.1135900216       1 (B2) B      1 (B1) A    ->    2 (B1) A      4 (A1) B     
 -0.1135900216       1 (B2) B      1 (B1) A    ->    4 (A1) B      2 (B1) A     
 -0.1040175090       3 (A1) A      1 (B2) B    ->    4 (A1) A      4 (A1) B     
  0.1040175090       3 (A1) A      1 (B2) B    ->    4 (A1) B      4 (A1) A     
 -0.1040175090       1 (B2) A      3 (A1) B    ->    4 (A1) A      4 (A1) B     
  0.1040175090       1 (B2) A      3 (A1) B    ->    4 (A1) B      4 (A1) A     
  0.1040175090       3 (A1) B      1 (B2) A    ->    4 (A1) A      4 (A1) B     
 -0.1040175090       3 (A1) B      1 (B2) A    ->    4 (A1) B      4 (A1) A     
  0.1040175090       1 (B2) B      3 (A1) A    ->    4 (A1) A      4 (A1) B     
 -0.1040175090       1 (B2) B      3 (A1) A    ->    4 (A1) B      4 (A1) A     
 -0.0972911146       1 (B1) A      1 (B2) B    ->    4 (A1) A      2 (B1) B     
  0.0972911146       1 (B1) A      1 (B2) B    ->    2 (B1) B      4 (A1) A     
 -0.0972911146       1 (B2) A      1 (B1) B    ->    2 (B1) A      4 (A1) B     
  0.0972911146       1 (B2) A      1 (B1) B    ->    4 (A1) B      2 (B1) A     
  0.0972911146       1 (B1) B      1 (B2) A    ->    2 (B1) A      4 (A1) B     
 -0.0972911146       1 (B1) B      1 (B2) A    ->    4 (A1) B      2 (B1) A     
  0.0972911146       1 (B2) B      1 (B1) A    ->    4 (A1) A      2 (B1) B     
 -0.0972911146       1 (B2) B      1 (B1) A    ->    2 (B1) B      4 (A1) A     
 -0.0609072225       3 (A1) A      1 (B2) B    ->    2 (B1) A      2 (B1) B     
  0.0609072225       3 (A1) A      1 (B2) B    ->    2 (B1) B      2 (B1) A     
 -0.0609072225       1 (B2) A      3 (A1) B    ->    2 (B1) A      2 (B1) B     
  0.0609072225       1 (B2) A      3 (A1) B    ->    2 (B1) B      2 (B1) A     
  0.0609072225       3 (A1) B      1 (B2) A    ->    2 (B1) A      2 (B1) B     
 -0.0609072225       3 (A1) B      1 (B2) A    ->    2 (B1) B      2 (B1) A     
  0.0609072225       1 (B2) B      3 (A1) A    ->    2 (B1) A      2 (B1) B     
 -0.0609072225       1 (B2) B      3 (A1) A    ->    2 (B1) B      2 (B1) A     
 -0.0584808506       2 (A1) A      1 (B2) B    ->    4 (A1) A      4 (A1) B     
  0.0584808506       2 (A1) A      1 (B2) B    ->    4 (A1) B      4 (A1) A     
 -0.0584808506       1 (B2) A      2 (A1) B    ->    4 (A1) A      4 (A1) B     
  0.0584808506       1 (B2) A      2 (A1) B    ->    4 (A1) B      4 (A1) A     
  0.0584808506       2 (A1) B      1 (B2) A    ->    4 (A1) A      4 (A1) B     
 -0.0584808506       2 (A1) B      1 (B2) A    ->    4 (A1) B      4 (A1) A     
  0.0584808506       1 (B2) B      2 (A1) A    ->    4 (A1) A      4 (A1) B     
 -0.0584808506       1 (B2) B      2 (A1) A    ->    4 (A1) B      4 (A1) A     
  0.0161148380       1 (B1) A      1 (B2) A    ->    4 (A1) A      2 (B1) A     
 -0.0161148380       1 (B1) A      1 (B2) A    ->    2 (B1) A      4 (A1) A     
 -0.0161148380       1 (B2) A      1 (B1) A    ->    4 (A1) A      2 (B1) A     
  0.0161148380       1 (B2) A      1 (B1) A    ->    2 (B1) A      4 (A1) A     
  0.0161148380       1 (B1) B      1 (B2) B    ->    4 (A1) B      2 (B1) B     
 -0.0161148380       1 (B1) B      1 (B2) B    ->    2 (B1) B      4 (A1) B     
 -0.0161148380       1 (B2) B      1 (B1) B    ->    4 (A1) B      2 (B1) B     
  0.0161148380       1 (B2) B      1 (B1) B    ->    2 (B1) B      4 (A1) B     
 -0.0097434865       2 (A1) A      1 (B2) B    ->    2 (B1) A      2 (B1) B     
  0.0097434865       2 (A1) A      1 (B2) B    ->    2 (B1) B      2 (B1) A     
 -0.0097434865       1 (B2) A      2 (A1) B    ->    2 (B1) A      2 (B1) B     
  0.0097434865       1 (B2) A      2 (A1) B    ->    2 (B1) B      2 (B1) A     
  0.0097434865       2 (A1) B      1 (B2) A    ->    2 (B1) A      2 (B1) B     
 -0.0097434865       2 (A1) B      1 (B2) A    ->    2 (B1) B      2 (B1) A     
  0.0097434865       1 (B2) B      2 (A1) A    ->    2 (B1) A      2 (B1) B     
 -0.0097434865       1 (B2) B      2 (A1) A    ->    2 (B1) B      2 (B1) A     

              Summary of significant orbitals:

               Number  Type             Irrep      Energy
               2       Occ  Alpha       2 (A1)     -1.2093
               4       Occ  Alpha       3 (A1)     -0.4354
               3       Occ  Alpha       1 (B1)     -0.5486
               5       Occ  Alpha       1 (B2)     -0.3872
               2       Occ  Beta        2 (A1)     -1.2093
               4       Occ  Beta        3 (A1)     -0.4354
               3       Occ  Beta        1 (B1)     -0.5486
               5       Occ  Beta        1 (B2)     -0.3872
               6       Vir  Alpha       4 (A1)      0.4766
               7       Vir  Alpha       2 (B1)      0.5894
               6       Vir  Beta        4 (A1)      0.4766
               7       Vir  Beta        2 (B1)      0.5894


 EEs and amplitudes of EOMEE has be exported to fchk file
Running a double precision version
      EOM-CCSD/MP2 left amplitudes will be solved using Davidson.
        Amplitudes will be solved using MOM  algorithm.
     Hard-coded thresholds: 
     LinDepThresh=1.00e-15  NormThresh=1.00e-06  ReorthogonThresh=1.00e-02

      Roots     MaxVec    MaxIter   Precond   Conv      Shift    
      1         120       60        1         1.00e-05  0.00e+00  
 ------------------------------------------------------------------------------
      Iter ConvRoots NVecs ResNorm Current eigenvalues (eV)
 ------------------------------------------------------------------------------
      0    0      1     7.53e-04   8.7698   
      1    0      2     5.44e-05   8.7694   
      2    1      3     1.40e-06   8.7694*  

     Davidson procedure converged

 Excited state properties for  EOMEE-CCSD transition 1/B2
 Dipole moment (a.u.): 0.000735 (X 0.000000, Y 0.000000, Z 0.000735)
 R-squared (a.u.): 21.476115 (XX 10.002714, YY 4.140907, ZZ 7.332494)
 Gauge origin (a.u.): (0.000000, 0.000000, 0.000000)
 Angular momentum (a.u.) against gauge origin: 
 (X 0.000000i, Y 0.000000i, Z 0.000000i)
 Traces of the OPDMs: Tr(AA) 5.000000, Tr(BB) 5.000000

        Solving for EOMEE-CCSD A1 triplet states.

Running a double precision version
        EOMEE-CCSD/MP2 right amplitudes will be solved using Davidson.
        Amplitudes will be solved using standard  algorithm.
     Hard-coded thresholds: 
     LinDepThresh=1.00e-15  NormThresh=1.00e-06  ReorthogonThresh=1.00e-02

      Roots     MaxVec    MaxIter   Precond   Conv      Shift    
      1         120       60        1         1.00e-05  0.00e+00  
 ------------------------------------------------------------------------------
      Iter ConvRoots NVecs ResNorm Current eigenvalues (eV)
 ------------------------------------------------------------------------------
      0    0      1     3.39e-02   11.3097   
      1    0      2     7.10e-03   10.3844   
      2    0      3     1.18e-03   10.0188   
      3    0      4     1.06e-04   9.9748   
      4    1      5     6.63e-06   9.9714*  

     Davidson procedure converged

 EOMEE transition 1/A1
 Total energy = -74.64589850 a.u.  Excitation energy = 9.97136670 eV.
 R0^2 = 0.0000  R1^2 = 0.9841  R2^2 = 0.0159  Res^2 = 6.63e-06
 Conv-d = yes

 Amplitude    Transitions between orbitals
  0.6673532001       3 (A1) A                  ->    4 (A1) A                   
 -0.6673532001       3 (A1) B                  ->    4 (A1) B                   
  0.2085278178       1 (B1) A                  ->    2 (B1) A                   
 -0.2085278178       1 (B1) B                  ->    2 (B1) B                   
  0.0568251620       2 (A1) A                  ->    4 (A1) A                   
 -0.0568251620       2 (A1) B                  ->    4 (A1) B                   
 -0.0654063088       3 (A1) A      1 (B1) B    ->    4 (A1) A      2 (B1) B     
  0.0654063088       3 (A1) A      1 (B1) B    ->    2 (B1) B      4 (A1) A     
  0.0654063088       1 (B1) A      3 (A1) B    ->    2 (B1) A      4 (A1) B     
 -0.0654063088       1 (B1) A      3 (A1) B    ->    4 (A1) B      2 (B1) A     
 -0.0654063088       3 (A1) B      1 (B1) A    ->    2 (B1) A      4 (A1) B     
  0.0654063088       3 (A1) B      1 (B1) A    ->    4 (A1) B      2 (B1) A     
  0.0654063088       1 (B1) B      3 (A1) A    ->    4 (A1) A      2 (B1) B     
 -0.0654063088       1 (B1) B      3 (A1) A    ->    2 (B1) B      4 (A1) A     
 -0.0466118784       3 (A1) A      1 (B1) B    ->    2 (B1) A      4 (A1) B     
  0.0466118784       3 (A1) A      1 (B1) B    ->    4 (A1) B      2 (B1) A     
  0.0466118784       1 (B1) A      3 (A1) B    ->    4 (A1) A      2 (B1) B     
 -0.0466118784       1 (B1) A      3 (A1) B    ->    2 (B1) B      4 (A1) A     
 -0.0466118784       3 (A1) B      1 (B1) A    ->    4 (A1) A      2 (B1) B     
  0.0466118784       3 (A1) B      1 (B1) A    ->    2 (B1) B      4 (A1) A     
  0.0466118784       1 (B1) B      3 (A1) A    ->    2 (B1) A      4 (A1) B     
 -0.0466118784       1 (B1) B      3 (A1) A    ->    4 (A1) B      2 (B1) A     
  0.0279797597       2 (A1) A      1 (B1) B    ->    4 (A1) A      2 (B1) B     
 -0.0279797597       2 (A1) A      1 (B1) B    ->    2 (B1) B      4 (A1) A     
 -0.0279797597       1 (B1) A      2 (A1) B    ->    2 (B1) A      4 (A1) B     
  0.0279797597       1 (B1) A      2 (A1) B    ->    4 (A1) B      2 (B1) A     
  0.0279797597       2 (A1) B      1 (B1) A    ->    2 (B1) A      4 (A1) B     
 -0.0279797597       2 (A1) B      1 (B1) A    ->    4 (A1) B      2 (B1) A     
 -0.0279797597       1 (B1) B      2 (A1) A    ->    4 (A1) A      2 (B1) B     
  0.0279797597       1 (B1) B      2 (A1) A    ->    2 (B1) B      4 (A1) A     
 -0.0160958326       3 (A1) A      1 (B1) A    ->    4 (A1) A      2 (B1) A     
  0.0160958326       3 (A1) A      1 (B1) A    ->    2 (B1) A      4 (A1) A     
  0.0160958326       1 (B1) A      3 (A1) A    ->    4 (A1) A      2 (B1) A     
 -0.0160958326       1 (B1) A      3 (A1) A    ->    2 (B1) A      4 (A1) A     
  0.0160958326       3 (A1) B      1 (B1) B    ->    4 (A1) B      2 (B1) B     
 -0.0160958326       3 (A1) B      1 (B1) B    ->    2 (B1) B      4 (A1) B     
 -0.0160958326       1 (B1) B      3 (A1) B    ->    4 (A1) B      2 (B1) B     
  0.0160958326       1 (B1) B      3 (A1) B    ->    2 (B1) B      4 (A1) B     
  0.0127135973       2 (A1) A      3 (A1) B    ->    2 (B1) A      2 (B1) B     
 -0.0127135973       3 (A1) A      2 (A1) B    ->    2 (B1) A      2 (B1) B     
 -0.0127135973       2 (A1) A      3 (A1) B    ->    2 (B1) B      2 (B1) A     
  0.0127135973       3 (A1) A      2 (A1) B    ->    2 (B1) B      2 (B1) A     
 -0.0127135973       3 (A1) B      2 (A1) A    ->    2 (B1) A      2 (B1) B     
  0.0127135973       2 (A1) B      3 (A1) A    ->    2 (B1) A      2 (B1) B     
 -0.0127135973       2 (A1) B      3 (A1) A    ->    2 (B1) B      2 (B1) A     
  0.0127135973       3 (A1) B      2 (A1) A    ->    2 (B1) B      2 (B1) A     
 -0.0126544986       2 (A1) A      1 (B1) B    ->    2 (B1) A      4 (A1) B     
  0.0126544986       2 (A1) A      1 (B1) B    ->    4 (A1) B      2 (B1) A     
  0.0126544986       1 (B1) A      2 (A1) B    ->    4 (A1) A      2 (B1) B     
 -0.0126544986       1 (B1) A      2 (A1) B    ->    2 (B1) B      4 (A1) A     
 -0.0126544986       2 (A1) B      1 (B1) A    ->    4 (A1) A      2 (B1) B     
  0.0126544986       2 (A1) B      1 (B1) A    ->    2 (B1) B      4 (A1) A     
  0.0126544986       1 (B1) B      2 (A1) A    ->    2 (B1) A      4 (A1) B     
 -0.0126544986       1 (B1) B      2 (A1) A    ->    4 (A1) B      2 (B1) A     
  0.0087579979       2 (A1) A      1 (B1) A    ->    4 (A1) A      2 (B1) A     
 -0.0087579979       2 (A1) A      1 (B1) A    ->    2 (B1) A      4 (A1) A     
 -0.0087579979       1 (B1) A      2 (A1) A    ->    4 (A1) A      2 (B1) A     
  0.0087579979       1 (B1) A      2 (A1) A    ->    2 (B1) A      4 (A1) A     
 -0.0087579979       2 (A1) B      1 (B1) B    ->    4 (A1) B      2 (B1) B     
  0.0087579979       2 (A1) B      1 (B1) B    ->    2 (B1) B      4 (A1) B     
  0.0087579979       1 (B1) B      2 (A1) B    ->    4 (A1) B      2 (B1) B     
 -0.0087579979       1 (B1) B      2 (A1) B    ->    2 (B1) B      4 (A1) B     
  0.0059738432       2 (A1) A      3 (A1) B    ->    4 (A1) A      4 (A1) B     
 -0.0059738432       3 (A1) A      2 (A1) B    ->    4 (A1) A      4 (A1) B     
 -0.0059738432       2 (A1) A      3 (A1) B    ->    4 (A1) B      4 (A1) A     
  0.0059738432       3 (A1) A      2 (A1) B    ->    4 (A1) B      4 (A1) A     
 -0.0059738432       3 (A1) B      2 (A1) A    ->    4 (A1) A      4 (A1) B     
  0.0059738432       2 (A1) B      3 (A1) A    ->    4 (A1) A      4 (A1) B     
 -0.0059738432       2 (A1) B      3 (A1) A    ->    4 (A1) B      4 (A1) A     
  0.0059738432       3 (A1) B      2 (A1) A    ->    4 (A1) B      4 (A1) A     

              Summary of significant orbitals:

               Number  Type             Irrep      Energy
               2       Occ  Alpha       2 (A1)     -1.2093
               4       Occ  Alpha       3 (A1)     -0.4354
               3       Occ  Alpha       1 (B1)     -0.5486
               2       Occ  Beta        2 (A1)     -1.2093
               4       Occ  Beta        3 (A1)     -0.4354
               3       Occ  Beta        1 (B1)     -0.5486
               6       Vir  Alpha       4 (A1)      0.4766
               7       Vir  Alpha       2 (B1)      0.5894
               6       Vir  Beta        4 (A1)      0.4766
               7       Vir  Beta        2 (B1)      0.5894


 EEs and amplitudes of EOMEE has be exported to fchk file
Running a double precision version
      EOM-CCSD/MP2 left amplitudes will be solved using Davidson.
        Amplitudes will be solved using MOM  algorithm.
     Hard-coded thresholds: 
     LinDepThresh=1.00e-15  NormThresh=1.00e-06  ReorthogonThresh=1.00e-02

      Roots     MaxVec    MaxIter   Precond   Conv      Shift    
      1         120       60        1         1.00e-05  0.00e+00  
 ------------------------------------------------------------------------------
      Iter ConvRoots NVecs ResNorm Current eigenvalues (eV)
 ------------------------------------------------------------------------------
      0    0      1     2.66e-04   9.9714   
      1    0      2     1.98e-05   9.9712   
      2    1      3     1.12e-06   9.9711*  

     Davidson procedure converged

 Excited state properties for  EOMEE-CCSD transition 1/A1
 Dipole moment (a.u.): 0.002801 (X 0.000000, Y 0.000000, Z -0.002801)
 R-squared (a.u.): 21.131584 (XX 9.796076, YY 4.693873, ZZ 6.641635)
 Gauge origin (a.u.): (0.000000, 0.000000, 0.000000)
 Angular momentum (a.u.) against gauge origin: 
 (X 0.000000i, Y 0.000000i, Z 0.000000i)
 Traces of the OPDMs: Tr(AA) 5.000000, Tr(BB) 5.000000

        Solving for EOMEE-CCSD A2 triplet states.

Running a double precision version
        EOMEE-CCSD/MP2 right amplitudes will be solved using Davidson.
        Amplitudes will be solved using standard  algorithm.
     Hard-coded thresholds: 
     LinDepThresh=1.00e-15  NormThresh=1.00e-06  ReorthogonThresh=1.00e-02

      Roots     MaxVec    MaxIter   Precond   Conv      Shift    
      1         120       60        1         1.00e-05  0.00e+00  
 ------------------------------------------------------------------------------
      Iter ConvRoots NVecs ResNorm Current eigenvalues (eV)
 ------------------------------------------------------------------------------
      0    0      1     3.45e-02   11.0437   
      1    0      2     5.90e-03   9.9788   
      2    0      3     1.25e-04   9.8457   
      3    1      4     6.04e-06   9.8455*  

     Davidson procedure converged

 EOMEE transition 1/A2
 Total energy = -74.65052511 a.u.  Excitation energy = 9.84547021 eV.
 R0^2 = 0.0000  R1^2 = 0.9384  R2^2 = 0.0616  Res^2 = 6.04e-06
 Conv-d = yes

 Amplitude    Transitions between orbitals
 -0.6849781172       1 (B2) A                  ->    2 (B1) A                   
  0.6849781172       1 (B2) B                  ->    2 (B1) B                   
 -0.1138202674       3 (A1) A      1 (B2) B    ->    4 (A1) A      2 (B1) B     
  0.1138202674       3 (A1) A      1 (B2) B    ->    2 (B1) B      4 (A1) A     
  0.1138202674       1 (B2) A      3 (A1) B    ->    2 (B1) A      4 (A1) B     
 -0.1138202674       1 (B2) A      3 (A1) B    ->    4 (A1) B      2 (B1) A     
 -0.1138202674       3 (A1) B      1 (B2) A    ->    2 (B1) A      4 (A1) B     
  0.1138202674       3 (A1) B      1 (B2) A    ->    4 (A1) B      2 (B1) A     
  0.1138202674       1 (B2) B      3 (A1) A    ->    4 (A1) A      2 (B1) B     
 -0.1138202674       1 (B2) B      3 (A1) A    ->    2 (B1) B      4 (A1) A     
 -0.0934541384       1 (B1) A      1 (B2) B    ->    4 (A1) A      4 (A1) B     
  0.0934541384       1 (B1) A      1 (B2) B    ->    4 (A1) B      4 (A1) A     
  0.0934541384       1 (B2) A      1 (B1) B    ->    4 (A1) A      4 (A1) B     
 -0.0934541384       1 (B2) A      1 (B1) B    ->    4 (A1) B      4 (A1) A     
 -0.0934541384       1 (B1) B      1 (B2) A    ->    4 (A1) A      4 (A1) B     
  0.0934541384       1 (B1) B      1 (B2) A    ->    4 (A1) B      4 (A1) A     
  0.0934541384       1 (B2) B      1 (B1) A    ->    4 (A1) A      4 (A1) B     
 -0.0934541384       1 (B2) B      1 (B1) A    ->    4 (A1) B      4 (A1) A     
 -0.0608242998       3 (A1) A      1 (B2) B    ->    2 (B1) A      4 (A1) B     
  0.0608242998       3 (A1) A      1 (B2) B    ->    4 (A1) B      2 (B1) A     
  0.0608242998       1 (B2) A      3 (A1) B    ->    4 (A1) A      2 (B1) B     
 -0.0608242998       1 (B2) A      3 (A1) B    ->    2 (B1) B      4 (A1) A     
 -0.0608242998       3 (A1) B      1 (B2) A    ->    4 (A1) A      2 (B1) B     
  0.0608242998       3 (A1) B      1 (B2) A    ->    2 (B1) B      4 (A1) A     
  0.0608242998       1 (B2) B      3 (A1) A    ->    2 (B1) A      4 (A1) B     
 -0.0608242998       1 (B2) B      3 (A1) A    ->    4 (A1) B      2 (B1) A     
 -0.0562673116       1 (B1) A      1 (B2) B    ->    2 (B1) A      2 (B1) B     
  0.0562673116       1 (B1) A      1 (B2) B    ->    2 (B1) B      2 (B1) A     
  0.0562673116       1 (B2) A      1 (B1) B    ->    2 (B1) A      2 (B1) B     
 -0.0562673116       1 (B2) A      1 (B1) B    ->    2 (B1) B      2 (B1) A     
 -0.0562673116       1 (B1) B      1 (B2) A    ->    2 (B1) A      2 (B1) B     
  0.0562673116       1 (B1) B      1 (B2) A    ->    2 (B1) B      2 (B1) A     
  0.0562673116       1 (B2) B      1 (B1) A    ->    2 (B1) A      2 (B1) B     
 -0.0562673116       1 (B2) B      1 (B1) A    ->    2 (B1) B      2 (B1) A     
 -0.0443208606       2 (A1) A      1 (B2) B    ->    4 (A1) A      2 (B1) B     
  0.0443208606       2 (A1) A      1 (B2) B    ->    2 (B1) B      4 (A1) A     
  0.0443208606       1 (B2) A      2 (A1) B    ->    2 (B1) A      4 (A1) B     
 -0.0443208606       1 (B2) A      2 (A1) B    ->    4 (A1) B      2 (B1) A     
 -0.0443208606       2 (A1) B      1 (B2) A    ->    2 (B1) A      4 (A1) B     
  0.0443208606       2 (A1) B      1 (B2) A    ->    4 (A1) B      2 (B1) A     
  0.0443208606       1 (B2) B      2 (A1) A    ->    4 (A1) A      2 (B1) B     
 -0.0443208606       1 (B2) B      2 (A1) A    ->    2 (B1) B      4 (A1) A     
  0.0136308207       2 (A1) A      1 (B2) B    ->    2 (B1) A      4 (A1) B     
 -0.0136308207       2 (A1) A      1 (B2) B    ->    4 (A1) B      2 (B1) A     
 -0.0136308207       1 (B2) A      2 (A1) B    ->    4 (A1) A      2 (B1) B     
  0.0136308207       1 (B2) A      2 (A1) B    ->    2 (B1) B      4 (A1) A     
  0.0136308207       2 (A1) B      1 (B2) A    ->    4 (A1) A      2 (B1) B     
 -0.0136308207       2 (A1) B      1 (B2) A    ->    2 (B1) B      4 (A1) A     
 -0.0136308207       1 (B2) B      2 (A1) A    ->    2 (B1) A      4 (A1) B     
  0.0136308207       1 (B2) B      2 (A1) A    ->    4 (A1) B      2 (B1) A     
  0.0100228050       3 (A1) A      1 (B2) A    ->    4 (A1) A      2 (B1) A     
 -0.0100228050       3 (A1) A      1 (B2) A    ->    2 (B1) A      4 (A1) A     
 -0.0100228050       1 (B2) A      3 (A1) A    ->    4 (A1) A      2 (B1) A     
  0.0100228050       1 (B2) A      3 (A1) A    ->    2 (B1) A      4 (A1) A     
 -0.0100228050       3 (A1) B      1 (B2) B    ->    4 (A1) B      2 (B1) B     
  0.0100228050       3 (A1) B      1 (B2) B    ->    2 (B1) B      4 (A1) B     
  0.0100228050       1 (B2) B      3 (A1) B    ->    4 (A1) B      2 (B1) B     
 -0.0100228050       1 (B2) B      3 (A1) B    ->    2 (B1) B      4 (A1) B     
 -0.0002222221       2 (A1) A      1 (B2) A    ->    4 (A1) A      2 (B1) A     
  0.0002222221       2 (A1) A      1 (B2) A    ->    2 (B1) A      4 (A1) A     
  0.0002222221       1 (B2) A      2 (A1) A    ->    4 (A1) A      2 (B1) A     
 -0.0002222221       1 (B2) A      2 (A1) A    ->    2 (B1) A      4 (A1) A     
  0.0002222221       2 (A1) B      1 (B2) B    ->    4 (A1) B      2 (B1) B     
 -0.0002222221       2 (A1) B      1 (B2) B    ->    2 (B1) B      4 (A1) B     
 -0.0002222221       1 (B2) B      2 (A1) B    ->    4 (A1) B      2 (B1) B     
  0.0002222221       1 (B2) B      2 (A1) B    ->    2 (B1) B      4 (A1) B     

              Summary of significant orbitals:

               Number  Type             Irrep      Energy
               2       Occ  Alpha       2 (A1)     -1.2093
               4       Occ  Alpha       3 (A1)     -0.4354
               3       Occ  Alpha       1 (B1)     -0.5486
               5       Occ  Alpha       1 (B2)     -0.3872
               2       Occ  Beta        2 (A1)     -1.2093
               4       Occ  Beta        3 (A1)     -0.4354
               3       Occ  Beta        1 (B1)     -0.5486
               5       Occ  Beta        1 (B2)     -0.3872
               6       Vir  Alpha       4 (A1)      0.4766
               7       Vir  Alpha       2 (B1)      0.5894
               6       Vir  Beta        4 (A1)      0.4766
               7       Vir  Beta        2 (B1)      0.5894


 EEs and amplitudes of EOMEE has be exported to fchk file
Running a double precision version
      EOM-CCSD/MP2 left amplitudes will be solved using Davidson.
        Amplitudes will be solved using MOM  algorithm.
     Hard-coded thresholds: 
     LinDepThresh=1.00e-15  NormThresh=1.00e-06  ReorthogonThresh=1.00e-02

      Roots     MaxVec    MaxIter   Precond   Conv      Shift    
      1         120       60        1         1.00e-05  0.00e+00  
 ------------------------------------------------------------------------------
      Iter ConvRoots NVecs ResNorm Current eigenvalues (eV)
 ------------------------------------------------------------------------------
      0    0      1     4.13e-04   9.8455   
      1    0      2     5.63e-05   9.8452   
      2    1      3     1.70e-06   9.8450*  

     Davidson procedure converged

 Excited state properties for  EOMEE-CCSD transition 1/A2
 Dipole moment (a.u.): 0.139907 (X 0.000000, Y 0.000000, Z -0.139907)
 R-squared (a.u.): 21.444526 (XX 10.177586, YY 4.049419, ZZ 7.217521)
 Gauge origin (a.u.): (0.000000, 0.000000, 0.000000)
 Angular momentum (a.u.) against gauge origin: 
 (X 0.000000i, Y 0.000000i, Z 0.000000i)
 Traces of the OPDMs: Tr(AA) 5.000000, Tr(BB) 5.000000

        Solving for EOMEE-CCSD B1 triplet states.

Running a double precision version
        EOMEE-CCSD/MP2 right amplitudes will be solved using Davidson.
        Amplitudes will be solved using standard  algorithm.
     Hard-coded thresholds: 
     LinDepThresh=1.00e-15  NormThresh=1.00e-06  ReorthogonThresh=1.00e-02

      Roots     MaxVec    MaxIter   Precond   Conv      Shift    
      1         120       60        1         1.00e-05  0.00e+00  
 ------------------------------------------------------------------------------
      Iter ConvRoots NVecs ResNorm Current eigenvalues (eV)
 ------------------------------------------------------------------------------
      0    0      1     2.44e-02   13.4407   
      1    0      2     8.14e-03   12.7109   
      2    0      3     7.01e-03   11.9523   
      3    0      4     5.70e-04   11.6936   
      4    0      5     2.66e-05   11.6758   
      5    1      6     3.46e-06   11.6740*  

     Davidson procedure converged

 EOMEE transition 1/B1
 Total energy = -74.58332766 a.u.  Excitation energy = 11.67400580 eV.
 R0^2 = 0.0000  R1^2 = 0.9882  R2^2 = 0.0118  Res^2 = 3.46e-06
 Conv-d = yes

 Amplitude    Transitions between orbitals
 -0.5621120926       3 (A1) A                  ->    2 (B1) A                   
  0.5621120926       3 (A1) B                  ->    2 (B1) B                   
 -0.4211914843       1 (B1) A                  ->    4 (A1) A                   
  0.4211914843       1 (B1) B                  ->    4 (A1) B                   
 -0.0271757103       2 (A1) A                  ->    2 (B1) A                   
  0.0271757103       2 (A1) B                  ->    2 (B1) B                   
  0.0504805941       3 (A1) A      1 (B1) B    ->    4 (A1) A      4 (A1) B     
 -0.0504805941       3 (A1) A      1 (B1) B    ->    4 (A1) B      4 (A1) A     
 -0.0504805941       1 (B1) A      3 (A1) B    ->    4 (A1) A      4 (A1) B     
  0.0504805941       1 (B1) A      3 (A1) B    ->    4 (A1) B      4 (A1) A     
  0.0504805941       3 (A1) B      1 (B1) A    ->    4 (A1) A      4 (A1) B     
 -0.0504805941       3 (A1) B      1 (B1) A    ->    4 (A1) B      4 (A1) A     
 -0.0504805941       1 (B1) B      3 (A1) A    ->    4 (A1) A      4 (A1) B     
  0.0504805941       1 (B1) B      3 (A1) A    ->    4 (A1) B      4 (A1) A     
 -0.0356390325       3 (A1) A      3 (A1) B    ->    4 (A1) A      2 (B1) B     
  0.0356390325       3 (A1) A      3 (A1) B    ->    2 (B1) A      4 (A1) B     
 -0.0356390325       3 (A1) A      3 (A1) B    ->    4 (A1) B      2 (B1) A     
  0.0356390325       3 (A1) A      3 (A1) B    ->    2 (B1) B      4 (A1) A     
  0.0356390325       3 (A1) B      3 (A1) A    ->    4 (A1) A      2 (B1) B     
 -0.0356390325       3 (A1) B      3 (A1) A    ->    2 (B1) A      4 (A1) B     
  0.0356390325       3 (A1) B      3 (A1) A    ->    4 (A1) B      2 (B1) A     
 -0.0356390325       3 (A1) B      3 (A1) A    ->    2 (B1) B      4 (A1) A     
  0.0278825240       1 (B1) A      1 (B1) B    ->    4 (A1) A      2 (B1) B     
 -0.0278825240       1 (B1) A      1 (B1) B    ->    2 (B1) A      4 (A1) B     
  0.0278825240       1 (B1) A      1 (B1) B    ->    4 (A1) B      2 (B1) A     
 -0.0278825240       1 (B1) A      1 (B1) B    ->    2 (B1) B      4 (A1) A     
 -0.0278825240       1 (B1) B      1 (B1) A    ->    4 (A1) A      2 (B1) B     
  0.0278825240       1 (B1) B      1 (B1) A    ->    2 (B1) A      4 (A1) B     
 -0.0278825240       1 (B1) B      1 (B1) A    ->    4 (A1) B      2 (B1) A     
  0.0278825240       1 (B1) B      1 (B1) A    ->    2 (B1) B      4 (A1) A     
 -0.0272908205       2 (A1) A      3 (A1) B    ->    4 (A1) A      2 (B1) B     
  0.0272908205       3 (A1) A      2 (A1) B    ->    2 (B1) A      4 (A1) B     
 -0.0272908205       3 (A1) A      2 (A1) B    ->    4 (A1) B      2 (B1) A     
  0.0272908205       2 (A1) A      3 (A1) B    ->    2 (B1) B      4 (A1) A     
  0.0272908205       3 (A1) B      2 (A1) A    ->    4 (A1) A      2 (B1) B     
 -0.0272908205       2 (A1) B      3 (A1) A    ->    2 (B1) A      4 (A1) B     
  0.0272908205       2 (A1) B      3 (A1) A    ->    4 (A1) B      2 (B1) A     
 -0.0272908205       3 (A1) B      2 (A1) A    ->    2 (B1) B      4 (A1) A     
 -0.0202071463       2 (A1) A      1 (B1) B    ->    2 (B1) A      2 (B1) B     
  0.0202071463       2 (A1) A      1 (B1) B    ->    2 (B1) B      2 (B1) A     
  0.0202071463       1 (B1) A      2 (A1) B    ->    2 (B1) A      2 (B1) B     
 -0.0202071463       1 (B1) A      2 (A1) B    ->    2 (B1) B      2 (B1) A     
 -0.0202071463       2 (A1) B      1 (B1) A    ->    2 (B1) A      2 (B1) B     
  0.0202071463       2 (A1) B      1 (B1) A    ->    2 (B1) B      2 (B1) A     
  0.0202071463       1 (B1) B      2 (A1) A    ->    2 (B1) A      2 (B1) B     
 -0.0202071463       1 (B1) B      2 (A1) A    ->    2 (B1) B      2 (B1) A     
 -0.0069924707       3 (A1) A      1 (B1) B    ->    2 (B1) A      2 (B1) B     
  0.0069924707       3 (A1) A      1 (B1) B    ->    2 (B1) B      2 (B1) A     
  0.0069924707       1 (B1) A      3 (A1) B    ->    2 (B1) A      2 (B1) B     
 -0.0069924707       1 (B1) A      3 (A1) B    ->    2 (B1) B      2 (B1) A     
 -0.0069924707       3 (A1) B      1 (B1) A    ->    2 (B1) A      2 (B1) B     
  0.0069924707       3 (A1) B      1 (B1) A    ->    2 (B1) B      2 (B1) A     
  0.0069924707       1 (B1) B      3 (A1) A    ->    2 (B1) A      2 (B1) B     
 -0.0069924707       1 (B1) B      3 (A1) A    ->    2 (B1) B      2 (B1) A     
  0.0068610275       1 (B2) A      1 (B2) B    ->    4 (A1) A      2 (B1) B     
 -0.0068610275       1 (B2) A      1 (B2) B    ->    2 (B1) A      4 (A1) B     
  0.0068610275       1 (B2) A      1 (B2) B    ->    4 (A1) B      2 (B1) A     
 -0.0068610275       1 (B2) A      1 (B2) B    ->    2 (B1) B      4 (A1) A     
 -0.0068610275       1 (B2) B      1 (B2) A    ->    4 (A1) A      2 (B1) B     
  0.0068610275       1 (B2) B      1 (B2) A    ->    2 (B1) A      4 (A1) B     
 -0.0068610275       1 (B2) B      1 (B2) A    ->    4 (A1) B      2 (B1) A     
  0.0068610275       1 (B2) B      1 (B2) A    ->    2 (B1) B      4 (A1) A     
  0.0060821232       3 (A1) A      2 (A1) B    ->    4 (A1) A      2 (B1) B     
 -0.0060821232       2 (A1) A      3 (A1) B    ->    2 (B1) A      4 (A1) B     
  0.0060821232       2 (A1) A      3 (A1) B    ->    4 (A1) B      2 (B1) A     
 -0.0060821232       3 (A1) A      2 (A1) B    ->    2 (B1) B      4 (A1) A     
 -0.0060821232       2 (A1) B      3 (A1) A    ->    4 (A1) A      2 (B1) B     
  0.0060821232       3 (A1) B      2 (A1) A    ->    2 (B1) A      4 (A1) B     
 -0.0060821232       3 (A1) B      2 (A1) A    ->    4 (A1) B      2 (B1) A     
  0.0060821232       2 (A1) B      3 (A1) A    ->    2 (B1) B      4 (A1) A     
  0.0022044354       2 (A1) A      3 (A1) A    ->    4 (A1) A      2 (B1) A     
 -0.0022044354       3 (A1) A      2 (A1) A    ->    4 (A1) A      2 (B1) A     
 -0.0022044354       2 (A1) A      3 (A1) A    ->    2 (B1) A      4 (A1) A     
  0.0022044354       3 (A1) A      2 (A1) A    ->    2 (B1) A      4 (A1) A     
 -0.0022044354       2 (A1) B      3 (A1) B    ->    4 (A1) B      2 (B1) B     
  0.0022044354       3 (A1) B      2 (A1) B    ->    4 (A1) B      2 (B1) B     
  0.0022044354       2 (A1) B      3 (A1) B    ->    2 (B1) B      4 (A1) B     
 -0.0022044354       3 (A1) B      2 (A1) B    ->    2 (B1) B      4 (A1) B     
  0.0015380451       2 (A1) A      1 (B1) B    ->    4 (A1) A      4 (A1) B     
 -0.0015380451       2 (A1) A      1 (B1) B    ->    4 (A1) B      4 (A1) A     
 -0.0015380451       1 (B1) A      2 (A1) B    ->    4 (A1) A      4 (A1) B     
  0.0015380451       1 (B1) A      2 (A1) B    ->    4 (A1) B      4 (A1) A     
  0.0015380451       2 (A1) B      1 (B1) A    ->    4 (A1) A      4 (A1) B     
 -0.0015380451       2 (A1) B      1 (B1) A    ->    4 (A1) B      4 (A1) A     
 -0.0015380451       1 (B1) B      2 (A1) A    ->    4 (A1) A      4 (A1) B     
  0.0015380451       1 (B1) B      2 (A1) A    ->    4 (A1) B      4 (A1) A     
 -0.0002004017       2 (A1) A      2 (A1) B    ->    4 (A1) A      2 (B1) B     
  0.0002004017       2 (A1) A      2 (A1) B    ->    2 (B1) A      4 (A1) B     
 -0.0002004017       2 (A1) A      2 (A1) B    ->    4 (A1) B      2 (B1) A     
  0.0002004017       2 (A1) A      2 (A1) B    ->    2 (B1) B      4 (A1) A     
  0.0002004017       2 (A1) B      2 (A1) A    ->    4 (A1) A      2 (B1) B     
 -0.0002004017       2 (A1) B      2 (A1) A    ->    2 (B1) A      4 (A1) B     
  0.0002004017       2 (A1) B      2 (A1) A    ->    4 (A1) B      2 (B1) A     
 -0.0002004017       2 (A1) B      2 (A1) A    ->    2 (B1) B      4 (A1) A     

              Summary of significant orbitals:

               Number  Type             Irrep      Energy
               2       Occ  Alpha       2 (A1)     -1.2093
               4       Occ  Alpha       3 (A1)     -0.4354
               3       Occ  Alpha       1 (B1)     -0.5486
               5       Occ  Alpha       1 (B2)     -0.3872
               2       Occ  Beta        2 (A1)     -1.2093
               4       Occ  Beta        3 (A1)     -0.4354
               3       Occ  Beta        1 (B1)     -0.5486
               5       Occ  Beta        1 (B2)     -0.3872
               6       Vir  Alpha       4 (A1)      0.4766
               7       Vir  Alpha       2 (B1)      0.5894
               6       Vir  Beta        4 (A1)      0.4766
               7       Vir  Beta        2 (B1)      0.5894


 EEs and amplitudes of EOMEE has be exported to fchk file
Running a double precision version
      EOM-CCSD/MP2 left amplitudes will be solved using Davidson.
        Amplitudes will be solved using MOM  algorithm.
     Hard-coded thresholds: 
     LinDepThresh=1.00e-15  NormThresh=1.00e-06  ReorthogonThresh=1.00e-02

      Roots     MaxVec    MaxIter   Precond   Conv      Shift    
      1         120       60        1         1.00e-05  0.00e+00  
 ------------------------------------------------------------------------------
      Iter ConvRoots NVecs ResNorm Current eigenvalues (eV)
 ------------------------------------------------------------------------------
      0    0      1     1.78e-04   11.6740   
      1    0      2     3.53e-05   11.6740   
      2    1      3     4.18e-06   11.6738*  

     Davidson procedure converged

 Excited state properties for  EOMEE-CCSD transition 1/B1
 Dipole moment (a.u.): 0.107526 (X 0.000000, Y 0.000000, Z -0.107526)
 R-squared (a.u.): 21.034311 (XX 9.670477, YY 4.637143, ZZ 6.726691)
 Gauge origin (a.u.): (0.000000, 0.000000, 0.000000)
 Angular momentum (a.u.) against gauge origin: 
 (X 0.000000i, Y 0.000000i, Z 0.000000i)
 Traces of the OPDMs: Tr(AA) 5.000000, Tr(BB) 5.000000

        Solving for EOMEE-CCSD B2 triplet states.

Running a double precision version
        EOMEE-CCSD/MP2 right amplitudes will be solved using Davidson.
        Amplitudes will be solved using standard  algorithm.
     Hard-coded thresholds: 
     LinDepThresh=1.00e-15  NormThresh=1.00e-06  ReorthogonThresh=1.00e-02

      Roots     MaxVec    MaxIter   Precond   Conv      Shift    
      1         120       60        1         1.00e-05  0.00e+00  
 ------------------------------------------------------------------------------
      Iter ConvRoots NVecs ResNorm Current eigenvalues (eV)
 ------------------------------------------------------------------------------
      0    0      1     4.03e-02   8.8190   
      1    0      2     1.18e-03   7.4852   
      2    0      3     3.09e-05   7.4662   
      3    1      4     8.88e-07   7.4678*  

     Davidson procedure converged

 EOMEE transition 1/B2
 Total energy = -74.73790410 a.u.  Excitation energy = 7.46776687 eV.
 R0^2 = 0.0000  R1^2 = 0.9434  R2^2 = 0.0566  Res^2 = 8.88e-07
 Conv-d = yes

 Amplitude    Transitions between orbitals
  0.6868061148       1 (B2) A                  ->    4 (A1) A                   
 -0.6868061148       1 (B2) B                  ->    4 (A1) B                   
  0.1238953343       1 (B1) A      1 (B2) B    ->    2 (B1) A      4 (A1) B     
 -0.1238953343       1 (B1) A      1 (B2) B    ->    4 (A1) B      2 (B1) A     
 -0.1238953343       1 (B2) A      1 (B1) B    ->    4 (A1) A      2 (B1) B     
  0.1238953343       1 (B2) A      1 (B1) B    ->    2 (B1) B      4 (A1) A     
  0.1238953343       1 (B1) B      1 (B2) A    ->    4 (A1) A      2 (B1) B     
 -0.1238953343       1 (B1) B      1 (B2) A    ->    2 (B1) B      4 (A1) A     
 -0.1238953343       1 (B2) B      1 (B1) A    ->    2 (B1) A      4 (A1) B     
  0.1238953343       1 (B2) B      1 (B1) A    ->    4 (A1) B      2 (B1) A     
  0.0759057872       3 (A1) A      1 (B2) B    ->    4 (A1) A      4 (A1) B     
 -0.0759057872       3 (A1) A      1 (B2) B    ->    4 (A1) B      4 (A1) A     
 -0.0759057872       1 (B2) A      3 (A1) B    ->    4 (A1) A      4 (A1) B     
  0.0759057872       1 (B2) A      3 (A1) B    ->    4 (A1) B      4 (A1) A     
  0.0759057872       3 (A1) B      1 (B2) A    ->    4 (A1) A      4 (A1) B     
 -0.0759057872       3 (A1) B      1 (B2) A    ->    4 (A1) B      4 (A1) A     
 -0.0759057872       1 (B2) B      3 (A1) A    ->    4 (A1) A      4 (A1) B     
  0.0759057872       1 (B2) B      3 (A1) A    ->    4 (A1) B      4 (A1) A     
  0.0697265850       3 (A1) A      1 (B2) B    ->    2 (B1) A      2 (B1) B     
 -0.0697265850       3 (A1) A      1 (B2) B    ->    2 (B1) B      2 (B1) A     
 -0.0697265850       1 (B2) A      3 (A1) B    ->    2 (B1) A      2 (B1) B     
  0.0697265850       1 (B2) A      3 (A1) B    ->    2 (B1) B      2 (B1) A     
  0.0697265850       3 (A1) B      1 (B2) A    ->    2 (B1) A      2 (B1) B     
 -0.0697265850       3 (A1) B      1 (B2) A    ->    2 (B1) B      2 (B1) A     
 -0.0697265850       1 (B2) B      3 (A1) A    ->    2 (B1) A      2 (B1) B     
  0.0697265850       1 (B2) B      3 (A1) A    ->    2 (B1) B      2 (B1) A     
  0.0400158313       1 (B1) A      1 (B2) B    ->    4 (A1) A      2 (B1) B     
 -0.0400158313       1 (B1) A      1 (B2) B    ->    2 (B1) B      4 (A1) A     
 -0.0400158313       1 (B2) A      1 (B1) B    ->    2 (B1) A      4 (A1) B     
  0.0400158313       1 (B2) A      1 (B1) B    ->    4 (A1) B      2 (B1) A     
  0.0400158313       1 (B1) B      1 (B2) A    ->    2 (B1) A      4 (A1) B     
 -0.0400158313       1 (B1) B      1 (B2) A    ->    4 (A1) B      2 (B1) A     
 -0.0400158313       1 (B2) B      1 (B1) A    ->    4 (A1) A      2 (B1) B     
  0.0400158313       1 (B2) B      1 (B1) A    ->    2 (B1) B      4 (A1) A     
  0.0241105423       1 (B1) A      1 (B2) A    ->    4 (A1) A      2 (B1) A     
 -0.0241105423       1 (B1) A      1 (B2) A    ->    2 (B1) A      4 (A1) A     
 -0.0241105423       1 (B2) A      1 (B1) A    ->    4 (A1) A      2 (B1) A     
  0.0241105423       1 (B2) A      1 (B1) A    ->    2 (B1) A      4 (A1) A     
 -0.0241105423       1 (B1) B      1 (B2) B    ->    4 (A1) B      2 (B1) B     
  0.0241105423       1 (B1) B      1 (B2) B    ->    2 (B1) B      4 (A1) B     
  0.0241105423       1 (B2) B      1 (B1) B    ->    4 (A1) B      2 (B1) B     
 -0.0241105423       1 (B2) B      1 (B1) B    ->    2 (B1) B      4 (A1) B     
  0.0113628744       2 (A1) A      1 (B2) B    ->    2 (B1) A      2 (B1) B     
 -0.0113628744       2 (A1) A      1 (B2) B    ->    2 (B1) B      2 (B1) A     
 -0.0113628744       1 (B2) A      2 (A1) B    ->    2 (B1) A      2 (B1) B     
  0.0113628744       1 (B2) A      2 (A1) B    ->    2 (B1) B      2 (B1) A     
  0.0113628744       2 (A1) B      1 (B2) A    ->    2 (B1) A      2 (B1) B     
 -0.0113628744       2 (A1) B      1 (B2) A    ->    2 (B1) B      2 (B1) A     
 -0.0113628744       1 (B2) B      2 (A1) A    ->    2 (B1) A      2 (B1) B     
  0.0113628744       1 (B2) B      2 (A1) A    ->    2 (B1) B      2 (B1) A     
  0.0034816244       2 (A1) A      1 (B2) B    ->    4 (A1) A      4 (A1) B     
 -0.0034816244       2 (A1) A      1 (B2) B    ->    4 (A1) B      4 (A1) A     
 -0.0034816244       1 (B2) A      2 (A1) B    ->    4 (A1) A      4 (A1) B     
  0.0034816244       1 (B2) A      2 (A1) B    ->    4 (A1) B      4 (A1) A     
  0.0034816244       2 (A1) B      1 (B2) A    ->    4 (A1) A      4 (A1) B     
 -0.0034816244       2 (A1) B      1 (B2) A    ->    4 (A1) B      4 (A1) A     
 -0.0034816244       1 (B2) B      2 (A1) A    ->    4 (A1) A      4 (A1) B     
  0.0034816244       1 (B2) B      2 (A1) A    ->    4 (A1) B      4 (A1) A     

              Summary of significant orbitals:

               Number  Type             Irrep      Energy
               2       Occ  Alpha       2 (A1)     -1.2093
               4       Occ  Alpha       3 (A1)     -0.4354
               3       Occ  Alpha       1 (B1)     -0.5486
               5       Occ  Alpha       1 (B2)     -0.3872
               2       Occ  Beta        2 (A1)     -1.2093
               4       Occ  Beta        3 (A1)     -0.4354
               3       Occ  Beta        1 (B1)     -0.5486
               5       Occ  Beta        1 (B2)     -0.3872
               6       Vir  Alpha       4 (A1)      0.4766
               7       Vir  Alpha       2 (B1)      0.5894
               6       Vir  Beta        4 (A1)      0.4766
               7       Vir  Beta        2 (B1)      0.5894


 EEs and amplitudes of EOMEE has be exported to fchk file
Running a double precision version
      EOM-CCSD/MP2 left amplitudes will be solved using Davidson.
        Amplitudes will be solved using MOM  algorithm.
     Hard-coded thresholds: 
     LinDepThresh=1.00e-15  NormThresh=1.00e-06  ReorthogonThresh=1.00e-02

      Roots     MaxVec    MaxIter   Precond   Conv      Shift    
      1         120       60        1         1.00e-05  0.00e+00  
 ------------------------------------------------------------------------------
      Iter ConvRoots NVecs ResNorm Current eigenvalues (eV)
 ------------------------------------------------------------------------------
      0    0      1     5.85e-04   7.4678   
      1    0      2     1.57e-05   7.4674   
      2    1      3     3.68e-07   7.4675*  

     Davidson procedure converged

 Excited state properties for  EOMEE-CCSD transition 1/B2
 Dipole moment (a.u.): 0.014648 (X 0.000000, Y 0.000000, Z 0.014648)
 R-squared (a.u.): 21.690819 (XX 10.129276, YY 4.161165, ZZ 7.400378)
 Gauge origin (a.u.): (0.000000, 0.000000, 0.000000)
 Angular momentum (a.u.) against gauge origin: 
 (X 0.000000i, Y 0.000000i, Z 0.000000i)
 Traces of the OPDMs: Tr(AA) 5.000000, Tr(BB) 5.000000

 EOMEE-CCSD calculation:   CPU 9.20 s  wall 2.76 s

 Total ccman2 time:   CPU 12.83 s  wall 3.85 s


 --------------------------------------------------------------
             Orbital Energies (a.u.) and Symmetries
 --------------------------------------------------------------

 Alpha MOs, Restricted
 -- Occupied --                  
-20.262  -1.209  -0.549  -0.435  -0.387
  1 A1    2 A1    1 B1    3 A1    1 B2                                         
 -- Virtual --                   
  0.477   0.589
  4 A1    2 B1                                                                 

 Beta MOs, Restricted
 -- Occupied --                  
-20.262  -1.209  -0.549  -0.435  -0.387
  1 A1    2 A1    1 B1    3 A1    1 B2                                         
 -- Virtual --                   
  0.477   0.589
  4 A1    2 B1                                                                 
 --------------------------------------------------------------

          Ground-State Mulliken Net Atomic Charges

     Atom                 Charge (a.u.)
  ----------------------------------------
      1 O                    -0.215422
      2 H                     0.107711
      3 H                     0.107711
  ----------------------------------------
  Sum of atomic charges =     0.000000

 -----------------------------------------------------------------
                    Cartesian Multipole Moments
 -----------------------------------------------------------------
    Charge (ESU x 10^10)
                 0.0000
    Dipole Moment (Debye)
         X      -0.0000      Y       0.0000      Z      -1.3484
       Tot       1.3484
    Quadrupole Moments (Debye-Ang)
        XX      -4.5362     XY      -0.0000     YY      -6.2237
        XZ       0.0000     YZ       0.0000     ZZ      -5.4751
    Octopole Moments (Debye-Ang^2)
       XXX      -0.0000    XXY       0.0000    XYY      -0.0000
       YYY       0.0000    XXZ      -0.4642    XYZ      -0.0000
       YYZ       0.1113    XZZ      -0.0000    YZZ       0.0000
       ZZZ       0.2017
    Hexadecapole Moments (Debye-Ang^3)
      XXXX      -8.4664   XXXY      -0.0000   XXYY      -2.1653
      XYYY      -0.0000   YYYY      -3.3901   XXXZ       0.0000
      XXYZ       0.0000   XYYZ       0.0000   YYYZ       0.0000
      XXZZ      -2.1357   XYZZ      -0.0000   YYZZ      -1.5873
      XZZZ       0.0000   YZZZ       0.0000   ZZZZ      -5.8680
 -----------------------------------------------------------------
 Total job time:  5.17s(wall), 14.99s(cpu) 
 Mon Sep  5 11:53:48 2022

        *************************************************************
        *                                                           *
        *  Thank you very much for using Q-Chem.  Have a nice day.  *
        *                                                           *
        *************************************************************


