Jobname.Temp
SP        R                             STO-3G              
Number of atoms                            I                3
Charge                                     I                0
Multiplicity                               I                1
Number of electrons                        I               10
Number of alpha electrons                  I                5
Number of beta electrons                   I                5
Atomic numbers                             I   N=           3
           8           1           1
Current cartesian coordinates              R   N=           9
 -3.61923167E-17  2.01647954E-17  2.08246138E-01 -1.34476807E+00 -1.44521796E-16
 -8.32984552E-01  1.34476807E+00 -1.67965673E-17 -8.32984552E-01
Nuclear charges                            R   N=           3
  8.00000000E+00  1.00000000E+00  1.00000000E+00
Number of basis functions                  I                7
Number of contracted shells                I                4
Number of primitive shells                 I               12
Highest angular momentum                   I                1
Largest degree of contraction              I                3
Shell types                                I   N=           4
           0          -1           0           0
Number of primitives per shell             I   N=           4
           3           3           3           3
Shell to atom map                          I   N=           4
           1           1           2           3
Primitive exponents                        R   N=          12
  1.30709320E+02  2.38088610E+01  6.44360830E+00  5.03315130E+00  1.16959610E+00
  3.80389000E-01  3.42525091E+00  6.23913730E-01  1.68855400E-01  3.42525091E+00
  6.23913730E-01  1.68855400E-01
Contraction coefficients                   R   N=          12
  1.54328969E-01  5.35328136E-01  4.44634536E-01 -9.99672287E-02  3.99512825E-01
  7.00115461E-01  1.54328971E-01  5.35328142E-01  4.44634542E-01  1.54328971E-01
  5.35328142E-01  4.44634542E-01
P(S=P) Contraction coefficients            R   N=          12
  0.00000000E+00  0.00000000E+00  0.00000000E+00  1.55916268E-01  6.07683714E-01
  3.91957386E-01  0.00000000E+00  0.00000000E+00  0.00000000E+00  0.00000000E+00
  0.00000000E+00  0.00000000E+00
Coordinates of each shell                  R   N=          12
 -3.61923167E-17  2.01647954E-17  2.08246138E-01 -3.61923167E-17  2.01647954E-17
  2.08246138E-01 -1.34476807E+00 -1.44521796E-16 -8.32984552E-01  1.34476807E+00
 -1.67965673E-17 -8.32984552E-01
Overlap Matrix                             R   N=          28
  1.00000000E+00  2.36703937E-01  1.00000000E+00  1.62260838E-35  0.00000000E+00
  1.00000000E+00  5.31319740E-34  4.27967589E-33  0.00000000E+00  1.00000000E+00
 -1.76994977E-17  6.15883258E-17  0.00000000E+00  1.93585313E-49  1.00000000E+00
  6.17832780E-02  5.13049258E-01 -3.26167659E-01 -3.99440179E-17 -2.52545985E-01
  1.00000000E+00  6.17832780E-02  5.13049258E-01  3.26167659E-01 -8.96481809E-18
 -2.52545985E-01  2.86265758E-01  1.00000000E+00
Core Hamiltonian Matrix                    R   N=          28
 -3.27912043E+01 -7.62944223E+00 -9.39755116E+00  0.00000000E+00  0.00000000E+00
 -7.68725479E+00  0.00000000E+00  0.00000000E+00  0.00000000E+00 -7.50872007E+00
  2.15004494E-02  2.46792273E-01  0.00000000E+00  0.00000000E+00 -7.61575409E+00
 -2.00643854E+00 -4.12380464E+00  2.16844686E+00 -3.19674402E-17  1.76563142E+00
 -5.32607733E+00 -2.00643854E+00 -4.12380464E+00 -2.16844686E+00 -7.17459838E-18
  1.76563142E+00 -1.89258839E+00 -5.32607733E+00
Orbital Coefficients CCMAN2 Alpha          R   N=          49
  9.93985036E-01  2.78979512E-02  4.82186558E-16 -1.39655246E-16 -4.94814830E-03
 -6.66076991E-03 -6.66076991E-03  2.30805626E-01 -8.13071597E-01 -1.51007822E-15
  9.12076201E-17  1.50656714E-01 -1.61440571E-01 -1.61440571E-01 -1.05731630E-01
  5.52737196E-01 -5.48540584E-15 -5.17282743E-16  7.89895923E-01 -2.53868662E-01
 -2.53868662E-01 -3.00966486E-16  1.56791175E-15  6.09849718E-01  4.38962537E-16
  7.25668710E-15 -4.40797917E-01  4.40797917E-01  1.25565916E-17 -5.22985615E-16
  5.05781862E-16 -1.00000000E+00 -3.47130871E-16 -3.64490358E-17  3.25882457E-16
 -1.40300212E-01  9.92219490E-01 -5.06934885E-16 -1.03839366E-16 -7.46676596E-01
 -8.42491904E-01 -8.42491904E-01 -2.22044605E-16  1.69309011E-15  1.02606345E+00
  3.29939677E-17 -4.85722573E-16  8.96534320E-01 -8.96534320E-01
Orbital Coefficients CCMAN2 Beta           R   N=          49
  2.30805626E-01 -8.13071597E-01 -1.51007822E-15  9.12076201E-17  1.50656714E-01
 -1.61440571E-01 -1.61440571E-01 -1.05731630E-01  5.52737196E-01 -5.48540584E-15
 -5.17282743E-16  7.89895923E-01 -2.53868662E-01 -2.53868662E-01 -3.00966486E-16
  1.56791175E-15  6.09849718E-01  4.38962537E-16  7.25668710E-15 -4.40797917E-01
  4.40797917E-01  1.25565916E-17 -5.22985615E-16  5.05781862E-16 -1.00000000E+00
 -3.47130871E-16 -3.64490358E-17  3.25882457E-16 -1.40300212E-01  9.92219490E-01
 -5.06934885E-16 -1.03839366E-16 -7.46676596E-01 -8.42491904E-01 -8.42491904E-01
 -2.22044605E-16  1.69309011E-15  1.02606345E+00  3.29939677E-17 -4.85722573E-16
  8.96534320E-01 -8.96534320E-01  9.93985036E-01  2.78979512E-02  4.82186558E-16
 -1.39655246E-16 -4.94814830E-03 -6.66076991E-03 -6.66076991E-03
EOMEE transition A1 Excitation Energies    R   N=           1
  6.50081580E-01
Number of Active Occ                       I               10
Number of Active Vir                       I                4
Alpha Amplitudes                           R   N=           4
 -6.80178360E-01 -1.17616213E-01 -6.80178360E-01 -1.17616213E-01
Alpha J Indexes                            I   N=           2
           0           4
Alpha I Indexes                            I   N=           4
           8          13          30          35
EOMEE transition A2 Excitation Energies    R   N=           1
  6.13416596E-01
Number of Active Occ                       I               10
Number of Active Vir                       I                4
Alpha Amplitudes                           R   N=           2
 -6.93818576E-01 -6.93818576E-01
Alpha J Indexes                            I   N=           2
           0           2
Alpha I Indexes                            I   N=           2
          17          39
EOMEE transition B1 Excitation Energies    R   N=           1
  7.66659882E-01
Number of Active Occ                       I               10
Number of Active Vir                       I                4
Alpha Amplitudes                           R   N=           4
  6.51860725E-01  2.31727843E-01  6.51860725E-01  2.31727843E-01
Alpha J Indexes                            I   N=           2
           0           4
Alpha I Indexes                            I   N=           4
           9          12          31          34
EOMEE transition B2 Excitation Energies    R   N=           1
  5.22740913E-01
Number of Active Occ                       I               10
Number of Active Vir                       I                4
Alpha Amplitudes                           R   N=           2
 -6.92418361E-01 -6.92418361E-01
Alpha J Indexes                            I   N=           2
           0           2
Alpha I Indexes                            I   N=           2
          16          38
EOMEE transition A1 Excitation Energies    R   N=           1
  5.65192967E-01
Number of Active Occ                       I               10
Number of Active Vir                       I                4
Alpha Amplitudes                           R   N=           4
 -6.89298094E-01  1.15178140E-01  6.89298094E-01 -1.15178140E-01
Alpha J Indexes                            I   N=           2
           0           4
Alpha I Indexes                            I   N=           4
           8          13          30          35
EOMEE transition A2 Excitation Energies    R   N=           1
  5.76089965E-01
Number of Active Occ                       I               10
Number of Active Vir                       I                4
Alpha Amplitudes                           R   N=           2
  6.97216449E-01 -6.97216449E-01
Alpha J Indexes                            I   N=           2
           0           2
Alpha I Indexes                            I   N=           2
          17          39
EOMEE transition B1 Excitation Energies    R   N=           1
  6.52453791E-01
Number of Active Occ                       I               10
Number of Active Vir                       I                4
Alpha Amplitudes                           R   N=           4
 -6.49264263E-01  2.71175235E-01  6.49264263E-01 -2.71175235E-01
Alpha J Indexes                            I   N=           2
           0           4
Alpha I Indexes                            I   N=           4
           9          12          31          34
EOMEE transition B2 Excitation Energies    R   N=           1
  4.58149201E-01
Number of Active Occ                       I               10
Number of Active Vir                       I                4
Alpha Amplitudes                           R   N=           2
  6.97140663E-01 -6.97140663E-01
Alpha J Indexes                            I   N=           2
           0           2
Alpha I Indexes                            I   N=           2
          16          38
Number of independent functions            I                7
Alpha MO coefficients                      R   N=          49
  9.93985036E-01  2.78979512E-02  4.82186558E-16 -1.39655246E-16 -4.94814830E-03
 -6.66076991E-03 -6.66076991E-03  2.30805626E-01 -8.13071597E-01 -1.51007822E-15
  9.12076201E-17  1.50656714E-01 -1.61440571E-01 -1.61440571E-01 -3.00966486E-16
  1.56791175E-15  6.09849718E-01  4.38962537E-16  7.25668710E-15 -4.40797917E-01
  4.40797917E-01 -1.05731630E-01  5.52737196E-01 -5.48540584E-15 -5.17282743E-16
  7.89895923E-01 -2.53868662E-01 -2.53868662E-01  1.25565916E-17 -5.22985615E-16
  5.05781862E-16 -1.00000000E+00 -3.47130871E-16 -3.64490358E-17  3.25882457E-16
 -1.40300212E-01  9.92219490E-01 -5.06934885E-16 -1.03839366E-16 -7.46676596E-01
 -8.42491904E-01 -8.42491904E-01 -2.22044605E-16  1.69309011E-15  1.02606345E+00
  3.29939677E-17 -4.85722573E-16  8.96534320E-01 -8.96534320E-01
Alpha Orbital Energies                     R   N=           7
 -2.02361917E+01 -1.30048025E+00 -6.49308761E-01 -4.60194132E-01 -3.96298392E-01
  6.64826899E-01  8.13313978E-01
Total SCF Density                          R   N=          28
  2.10569660E+00 -4.42357977E-01  1.97232181E+00  1.07635949E-15 -1.78294546E-15
  7.52474416E-01 -1.49222247E-16  3.05008665E-16 -4.82323464E-16  1.99851628E+00
 -1.06427923E-01  6.20380380E-01 -2.60435146E-16 -8.24170653E-17  1.27245898E+00
 -2.91756756E-02 -4.86358000E-02 -5.13395937E-01 -6.77477046E-17 -4.42218198E-01
  6.07324919E-01 -2.91756756E-02 -4.86358000E-02  5.13395937E-01 -2.34493084E-17
 -4.42218198E-01 -2.02986175E-01  6.07324919E-01
Pure Switching                             I                1
Dipole_Data                                R   N=           3
 -3.51377950E-15 -9.18684085E-16 -1.70931004E+00
Quadrupole_Data                            R   N=           6
 -4.49605007E+00  4.13938878E-16 -6.05428177E+00  2.96346234E-15 -1.47002542E-17
 -5.43139422E+00
Octapole_Data                              R   N=          10
 -6.63396320E-15 -1.31578782E-16 -8.81810643E-16 -2.75415337E-16 -4.33782285E-01
  1.72237158E-17 -1.62472445E-02 -1.80839480E-15 -1.13106379E-16 -1.96505406E-01
Hexadecapole_Data                          R   N=          15
 -6.19610879E+00  5.90529788E-17 -1.67903296E+00  2.64143149E-17 -3.19474541E+00
  1.99988170E-15 -6.20354693E-18  3.25486671E-16 -1.06176780E-16 -1.64758808E+00
  2.73229457E-17 -1.33602077E+00  1.68547194E-15 -9.07701980E-17 -4.65509610E+00
