                  Welcome to Q-Chem
     A Quantum Leap Into The Future Of Chemistry


 Q-Chem 5.4 (devel), Q-Chem, Inc., Pleasanton, CA (2021)

 E. Epifanovsky,  A. T. B. Gilbert,  Xintian Feng,  Joonho Lee,  Yuezhi Mao,  
 N. Mardirossian,  P. Pokhilko,  A. White,  M. Wormit,  M. P. Coons,  
 A. L. Dempwolff,  Zhengting Gan,  D. Hait,  P. R. Horn,  L. D. Jacobson,  
 I. Kaliman,  J. Kussmann,  A. W. Lange,  Ka Un Lao,  D. S. Levine,  Jie Liu,  
 S. C. McKenzie,  A. F. Morrison,  K. Nanda,  F. Plasser,  D. R. Rehn,  
 M. L. Vidal,  Zhi-Qiang You,  Ying Zhu,  B. Alam,  B. Albrecht,  
 A. Aldossary,  E. Alguire,  J. H. Andersen,  D. Barton,  K. Begam,  A. Behn,  
 Y. A. Bernard,  E. J. Berquist,  H. Burton,  A. Carreras,  K. Carter-Fenk,  
 R. Chakraborty,  A. D. Chien,  K. D. Closser,  V. Cofer-Shabica,  
 S. Dasgupta,  Jia Deng,  M. de Wergifosse,  M. Diedenhofen,  Hainam Do,  
 S. Ehlert,  Po-Tung Fang,  S. Fatehi,  Qingguo Feng,  T. Friedhoff,  
 J. Gayvert,  Qinghui Ge,  G. Gidofalvi,  M. Goldey,  J. Gomes,  
 C. Gonzalez-Espinoza,  S. Gulania,  A. Gunina,  M. W. D. Hanson-Heine,  
 P. H. P. Harbach,  A. W. Hauser,  M. F. Herbst,  M. Hernandez Vera,  
 M. Hodecker,  Z. C. Holden,  S. Houck,  Xunkun Huang,  Kerwin Hui,  
 B. C. Huynh,  M. Ivanov,  Hyunjun Ji,  Hanjie Jiang,  B. Kaduk,  S. Kaehler,  
 K. Khistyaev,  Jaehoon Kim,  P. Klunzinger,  Z. Koczor-Benda,  
 Joong Hoon Koh,  D. Kosenkov,  L. Koulias,  T. Kowalczyk,  C. M. Krauter,  
 K. Kue,  A. Kunitsa,  T. Kus,  A. Landau,  K. V. Lawler,  D. Lefrancois,  
 S. Lehtola,  Rain Li,  Yi-Pei Li,  Jiashu Liang,  M. Liebenthal,  
 Hung-Hsuan Lin,  You-Sheng Lin,  Fenglai Liu,  Kuan-Yu Liu,  
 M. Loipersberger,  A. Luenser,  A. Manjanath,  P. Manohar,  E. Mansoor,  
 S. F. Manzer,  Shan-Ping Mao,  A. V. Marenich,  T. Markovich,  S. Mason,  
 S. A. Maurer,  P. F. McLaughlin,  M. F. S. J. Menger,  J.-M. Mewes,  
 S. A. Mewes,  P. Morgante,  J. W. Mullinax,  K. J. Oosterbaan,  G. Paran,  
 Alexander C. Paul,  Suranjan K. Paul,  F. Pavosevic,  Zheng Pei,  S. Prager,  
 E. I. Proynov,  E. Ramos,  B. Rana,  A. E. Rask,  A. Rettig,  R. M. Richard,  
 F. Rob,  E. Rossomme,  T. Scheele,  M. Scheurer,  M. Schneider,  
 N. Sergueev,  S. M. Sharada,  W. Skomorowski,  D. W. Small,  C. J. Stein,  
 Yu-Chuan Su,  E. J. Sundstrom,  Zhen Tao,  J. Thirman,  T. Tsuchimochi,  
 N. M. Tubman,  S. P. Veccham,  O. Vydrov,  J. Wenzel,  J. Witte,  A. Yamada,  
 Kun Yao,  S. Yeganeh,  S. R. Yost,  A. Zech,  Igor Ying Zhang,  Xing Zhang,  
 Yu Zhang,  D. Zuev,  A. Aspuru-Guzik,  A. T. Bell,  N. A. Besley,  
 K. B. Bravaya,  B. R. Brooks,  D. Casanova,  Jeng-Da Chai,  S. Coriani,  
 C. J. Cramer,  A. E. DePrince, III,  R. A. DiStasio Jr.,  A. Dreuw,  
 B. D. Dunietz,  T. R. Furlani,  W. A. Goddard III,  S. Grimme,  
 S. Hammes-Schiffer,  T. Head-Gordon,  W. J. Hehre,  Chao-Ping Hsu,  
 T.-C. Jagau,  Yousung Jung,  A. Klamt,  Jing Kong,  D. S. Lambrecht,  
 WanZhen Liang,  N. J. Mayhall,  C. W. McCurdy,  J. B. Neaton,  
 C. Ochsenfeld,  J. A. Parkhill,  R. Peverati,  V. A. Rassolov,  Yihan Shao,  
 L. V. Slipchenko,  T. Stauch,  R. P. Steele,  J. E. Subotnik,  
 A. J. W. Thom,  A. Tkatchenko,  D. G. Truhlar,  T. Van Voorhis,  
 T. A. Wesolowski,  K. B. Whaley,  H. L. Woodcock III,  P. M. Zimmerman,  
 S. Faraji,  P. M. W. Gill,  M. Head-Gordon,  J. M. Herbert,  A. I. Krylov

 Additional authors for Version 5.4.1: 
 S. Kotaru,  Shaozhi Li,  Xiangyuan Li,  F. Matz,  A. Molle,  Haisheng Ren,  
 Yingli Su,  Hung-Yi Tsai,  C. Utku,  Fang Wang

 Contributors to earlier versions of Q-Chem not listed above: 
 R. D. Adamson,  B. Austin,  R. Baer,  J. Baker,  G. J. O. Beran,  
 K. Brandhorst,  S. T. Brown,  E. F. C. Byrd,  A. K. Chakraborty,  
 G. K. L. Chan,  Chun-Min Chang,  Yunqing Chen,  C.-L. Cheng,  
 Siu Hung Chien,  D. M. Chipman,  D. L. Crittenden,  H. Dachsel,  
 R. J. Doerksen,  A. D. Dutoi,  R. G. Edgar,  J. Fosso-Tande,  
 L. Fusti-Molnar,  D. Ghosh,  A. Ghysels,  A. Golubeva-Zadorozhnaya,  
 J. Gonthier,  M. S. Gordon,  S. R. Gwaltney,  G. Hawkins,  J. E. Herr,  
 A. Heyden,  S. Hirata,  E. G. Hohenstein,  G. Kedziora,  F. J. Keil,  
 C. Kelley,  Jihan Kim,  R. A. King,  R. Z. Khaliullin,  P. P. Korambath,  
 W. Kurlancheek,  A. Laurent,  A. M. Lee,  M. S. Lee,  S. V. Levchenko,  
 Ching Yeh Lin,  D. Liotard,  E. Livshits,  R. C. Lochan,  I. Lotan,  
 L. A. Martinez-Martinez,  P. E. Maslen,  N. Nair,  D. P. O'Neill,  
 D. Neuhauser,  E. Neuscamman,  C. M. Oana,  R. Olivares-Amaya,  R. Olson,  
 T. M. Perrine,  B. Peters,  P. A. Pieniazek,  A. Prociuk,  Y. M. Rhee,  
 J. Ritchie,  M. A. Rohrdanz,  E. Rosta,  N. J. Russ,  H. F. Schaefer III,  
 M. W. Schmidt,  N. E. Schultz,  S. Sharma,  N. Shenvi,  C. D. Sherrill,  
 A. C. Simmonett,  A. Sodt,  T. Stein,  D. Stuck,  K. S. Thanthiriwatte,  
 V. Vanovschi,  L. Vogt,  Tao Wang,  A. Warshel,  M. A. Watson,  
 C. F. Williams,  Q. Wu,  X. Xu,  Jun Yang,  W. Zhang,  Yan Zhao

 Please cite Q-Chem as follows:
 Y. Shao et al., Mol. Phys. 113, 184-215 (2015)
 DOI: 10.1080/00268976.2014.952696

 Q-Chem 5.4.1 for Intel X86 EM64T Linux

 Parts of Q-Chem use Armadillo 9.900.5 (Nocturnal Misbehaviour).
 http://arma.sourceforge.net/

 Q-Chem begins on Mon Sep  5 11:53:03 2022  

orc42
 Host: 0

     Scratch files written to /scratch/yongbin/qchem2254//
 Processing $rem in /home/users/yongbin/software/yongbin_quantum/config/preferences:
 Processing $rem in /home/users/yongbin/.qchemrc:
 Core orbitals will be frozen

 Checking the input file for inconsistencies... 	...done.

--------------------------------------------------------------
User input:
--------------------------------------------------------------
$comment
Water molecule
$end

$molecule
0 1
O
H O 0.9
H O 0.9 H 104.5
$end

$rem
!   n_frozen_core = 0
   print_qis = true
   BASIS                = sto-3g
!   SYMMETRY             = true
!   CC_SYMMETRY          = false
   METHOD               = eom-ccsd
   EE_SINGLETS          = [1,1,1,1] ! Compute two EOM-EE singlet excited states
   EE_TRIPLETS          = [1,1,1,1] ! Compute two EOM-EE triplet excited states
   CC_REF_PROP          = true ! Compute ground state properties
   CC_EOM_PROP          = true ! Compute excited state properties
!   CC_OSFNO             = true
   GUI                  = 2
$end
--------------------------------------------------------------
 ----------------------------------------------------------------
             Standard Nuclear Orientation (Angstroms)
    I     Atom           X                Y                Z
 ----------------------------------------------------------------
    1      O      -0.0000000000     0.0000000000     0.1101991104
    2      H      -0.7116206164    -0.0000000000    -0.4407964416
    3      H       0.7116206164    -0.0000000000    -0.4407964416
 ----------------------------------------------------------------
 Molecular Point Group                 C2v   NOp =  4
 Largest Abelian Subgroup              C2v   NOp =  4
 Nuclear Repulsion Energy =           9.77940619 hartrees
 There are        5 alpha and        5 beta electrons
 Requested basis set is STO-3G
 There are 4 shells and 7 basis functions
 Total memory of 2000 MB is distributed as follows: 
   MEM_STATIC is set to 192 MB
   QALLOC/CCMAN JOB total memory use is  1808 MB
 Warning: actual memory use might exceed 2000 MB

 Total QAlloc Memory Limit   2000 MB
 Mega-Array Size       188 MB
 MEM_STATIC part       192 MB

                       Distance Matrix (Angstroms)
             O (  1)   H (  2)
   H (  2)  0.900000
   H (  3)  0.900000  1.423241

 A cutoff of  1.0D-14 yielded     10 shell pairs
 There are        34 function pairs
 Smallest overlap matrix eigenvalue = 3.05E-01

 Scale SEOQF with 1.000000e+00/1.000000e+00/1.000000e+00

 Standard Electronic Orientation quadrupole field applied
 Nucleus-field energy     =    -0.0000000002 hartrees
 Guess from superposition of atomic densities
 Warning:  Energy on first SCF cycle will be non-variational
 SAD guess density has 10.000000 electrons

 -----------------------------------------------------------------------
  General SCF calculation program by
  Eric Jon Sundstrom, Paul Horn, Yuezhi Mao, Dmitri Zuev, Alec White,
  David Stuck, Shaama M.S., Shane Yost, Joonho Lee, David Small,
  Daniel Levine, Susi Lehtola, Hugh Burton, Evgeny Epifanovsky,
  Bang C. Huynh
 -----------------------------------------------------------------------
 Hartree-Fock
 using 20 threads for integral computing
 -------------------------------------------------------
 OpenMP Integral computing Module                
 Release: version 1.0, May 2013, Q-Chem Inc. Pittsburgh 
 -------------------------------------------------------
 A restricted SCF calculation will be
 performed using DIIS
 SCF converges when DIIS error is below 1.0e-08
 ---------------------------------------
  Cycle       Energy         DIIS error
 ---------------------------------------
    1     -74.8409936578      4.89e-01  
    2     -74.9113258501      6.30e-02  
    3     -74.9446914046      6.65e-03  
    4     -74.9450021523      1.47e-03  
    5     -74.9450210039      1.82e-05  
    6     -74.9450210083      4.63e-06  
    7     -74.9450210087      2.05e-07  
    8     -74.9450210087      8.74e-12  Convergence criterion met
 ---------------------------------------
 SCF time:   CPU 0.86s  wall 2.00s 
 SCF   energy in the final basis set =      -74.9450210087
 Total energy in the final basis set =      -74.9450210087


 ------------------------------------------------------------------------------

   CCMAN2: suite of methods based on coupled cluster
           and equation of motion theories.

   Components:
   * libvmm-1.3-trunk
     by Evgeny Epifanovsky, Ilya Kaliman.
   * libtensor-2.5-trunk
     by Evgeny Epifanovsky, Michael Wormit, Dmitry Zuev, Sam Manzer, 
        Ilya Kaliman.
   * libcc-2.5-trunk
     by Evgeny Epifanovsky, Arik Landau, Tomasz Kus, Kirill Khistyaev, 
        Dmitry Zuev, Prashant Manohar, Xintian Feng, Anna Krylov, 
        Matthew Goldey, Alec White, Thomas Jagau, Kaushik Nanda, 
        Anastasia Gunina, Alexander Kunitsa, Joonho Lee.

   CCMAN original authors:
   Anna I. Krylov, C. David Sherrill, Steven R. Gwaltney,
   Edward F. C. Byrd (2000)
   Sergey V. Levchenko, Lyudmila V. Slipchenko, Tao Wang,
   Ana-Maria C. Cristian (2003)
   Piotr A. Pieniazek, C. Melania Oana, Evgeny Epifanovsky (2007)
   Prashant Manohar (2009)

 ------------------------------------------------------------------------------


 Allocating and initializing 1808MB of RAM...
 Calculation will run on 20 cores.


 Alpha MOs, Restricted
 -- Occupied --                  
-20.236  -1.300  -0.649  -0.460  -0.396
  1 A1    2 A1    1 B1    3 A1    1 B2                                         
 -- Virtual --                   
  0.665   0.813
  4 A1    2 B1                                                                 

 Beta MOs, Restricted
 -- Occupied --                  
-20.236  -1.300  -0.649  -0.460  -0.396
  1 A1    2 A1    1 B1    3 A1    1 B2                                         
 -- Virtual --                   
  0.665   0.813
  4 A1    2 B1                                                                 

 Occupation and symmetry of molecular orbitals

 Point group: C2v (4 irreducible representations).

                           A1   A2   B1   B2    All 
 ----------------------------------------------------
 All molecular orbitals:
  - Alpha                  4    0    2    1     7   
  - Beta                   4    0    2    1     7   
 ----------------------------------------------------
 Alpha orbitals:
  - Frozen occupied        1    0    0    0     1   
  - Active occupied        2    0    1    1     4   
  - Active virtual         1    0    1    0     2   
  - Frozen virtual         0    0    0    0     0   
 ----------------------------------------------------
 Beta orbitals:
  - Frozen occupied        1    0    0    0     1   
  - Active occupied        2    0    1    1     4   
  - Active virtual         1    0    1    0     2   
  - Frozen virtual         0    0    0    0     0   
 ----------------------------------------------------

 Import integrals:   CPU 0.00 s  wall 0.00 s

 Import integrals:   CPU 0.13 s  wall 0.02 s

 Run QIS:   CPU 0.01 s  wall 0.01 s

 MP2 amplitudes:   CPU 0.14 s  wall 0.03 s

Running a double precision version
           CCSD T amplitudes will be solved using DIIS.

           Start     Size      MaxIter   EConv     TConv     
           3         7         100       1.00e-06  1.00e-04  
 ------------------------------------------------------------------------------
           Energy (a.u.)   Ediff      Tdiff       Comment
 ------------------------------------------------------------------------------
           -74.97599778                           
     1     -74.98394435   7.95e-03   1.49e-01     
     2     -74.98628888   2.34e-03   3.77e-02     
     3     -74.98706246   7.74e-04   1.22e-02     
     4     -74.98750118   4.39e-04   6.76e-03     Switched to DIIS steps.
     5     -74.98751352   1.23e-05   7.43e-04     
     6     -74.98751454   1.02e-06   1.58e-04     
     7     -74.98751454   2.14e-10   1.09e-05     
 ------------------------------------------------------------------------------
           -74.98751454                           CCSD T converged.

End of double precision
 SCF energy                 = -74.94502101
 MP2 energy                 = -74.97599778
 CCSD correlation energy    =  -0.04249353
 CCSD total energy          = -74.98751454

 CCSD  T1^2 = 0.0002  T2^2 = 0.0207  Leading amplitudes:

 Amplitude    Orbitals with energies
  0.0103704384       3 (A1) A                  ->    4 (A1) A                   
                    -0.4602                          0.6648                     
  0.0103704384       3 (A1) B                  ->    4 (A1) B                   
                    -0.4602                          0.6648                     
 -0.0032720232       1 (B1) A                  ->    2 (B1) A                   
                    -0.6493                          0.8133                     
 -0.0032720232       1 (B1) B                  ->    2 (B1) B                   
                    -0.6493                          0.8133                     

 Amplitude    Orbitals with energies
 -0.0705978593       1 (B1) A      1 (B1) B    ->    2 (B1) A      2 (B1) B     
                    -0.6493       -0.6493            0.8133        0.8133       
  0.0705978593       1 (B1) A      1 (B1) B    ->    2 (B1) B      2 (B1) A     
                    -0.6493       -0.6493            0.8133        0.8133       
  0.0705978593       1 (B1) B      1 (B1) A    ->    2 (B1) A      2 (B1) B     
                    -0.6493       -0.6493            0.8133        0.8133       
 -0.0705978593       1 (B1) B      1 (B1) A    ->    2 (B1) B      2 (B1) A     
                    -0.6493       -0.6493            0.8133        0.8133       

 Computing CCSD intermediates for later calculations in double precision
 Finished.

Running a double precision version
           CCSD Lambda amplitudes will be solved using DIIS.
           Start     Size      MaxIter   EConv     LConv     
           3         7         100       1.00e-06  1.00e-04  
 ------------------------------------------------------------------------------
            Enorm      Ldiff       Comment
 ------------------------------------------------------------------------------
     1     3.14e-03   2.33e-03     
     2     8.26e-04   7.09e-04     
     3     2.70e-04   2.28e-04     
     4     4.61e-05   1.13e-04     Switched to DIIS steps.
     5     7.79e-06   1.55e-05     
     6     1.06e-06   9.25e-07     
     7     1.47e-07   2.70e-08     
 ------------------------------------------------------------------------------
                                   CCSD Lambda converged.

 Computing density matrices in double precision...
 Computing density matrices... Done.
 Reference state properties
 Dipole moment (a.u.): 0.672549 (X 0.000000, Y 0.000000, Z -0.672549)
 R-squared (a.u.): 17.233202 (XX 6.959339, YY 4.501184, ZZ 5.772679)
 Gauge origin (a.u.): (0.000000, 0.000000, 0.000000)
 Angular momentum (a.u.) against gauge origin: 
 (X 0.000000i, Y 0.000000i, Z 0.000000i)
 Traces of the OPDMs: Tr(AA) 5.000000, Tr(BB) 5.000000
 Density matrix was written to a file for further analysis.

 CCSD calculation:   CPU 3.79 s  wall 0.90 s

        Solving for EOMEE-CCSD A1 singlet states.

Running a double precision version
        EOMEE-CCSD/MP2 right amplitudes will be solved using Davidson.
        Amplitudes will be solved using standard  algorithm.
     Hard-coded thresholds: 
     LinDepThresh=1.00e-15  NormThresh=1.00e-06  ReorthogonThresh=1.00e-02

      Roots     MaxVec    MaxIter   Precond   Conv      Shift    
      1         120       60        1         1.00e-05  0.00e+00  
 ------------------------------------------------------------------------------
      Iter ConvRoots NVecs ResNorm Current eigenvalues (eV)
 ------------------------------------------------------------------------------
      0    0      1     6.42e-02   19.4895   
      1    0      2     1.27e-02   17.9582   
      2    0      3     3.78e-04   17.6986   
      3    0      4     2.55e-05   17.6910   
      4    1      5     2.54e-06   17.6911*  

     Davidson procedure converged

 EOMEE transition 1/A1
 Total energy = -74.33737775 a.u.  Excitation energy = 17.69112175 eV.
 R0^2 = 0.0005  R1^2 = 0.9582  R2^2 = 0.0418  Res^2 = 2.54e-06
 Conv-d = yes

 Amplitude    Transitions between orbitals
 -0.6801714921       3 (A1) A                  ->    4 (A1) A                   
 -0.6801714921       3 (A1) B                  ->    4 (A1) B                   
 -0.1175516820       1 (B1) A                  ->    2 (B1) A                   
 -0.1175516820       1 (B1) B                  ->    2 (B1) B                   
  0.0513351097       2 (A1) A                  ->    4 (A1) A                   
  0.0513351097       2 (A1) B                  ->    4 (A1) B                   
  0.0993614292       3 (A1) A      3 (A1) B    ->    4 (A1) A      4 (A1) B     
 -0.0993614292       3 (A1) A      3 (A1) B    ->    4 (A1) B      4 (A1) A     
 -0.0993614292       3 (A1) B      3 (A1) A    ->    4 (A1) A      4 (A1) B     
  0.0993614292       3 (A1) B      3 (A1) A    ->    4 (A1) B      4 (A1) A     
  0.0797727965       3 (A1) A      3 (A1) B    ->    2 (B1) A      2 (B1) B     
 -0.0797727965       3 (A1) A      3 (A1) B    ->    2 (B1) B      2 (B1) A     
 -0.0797727965       3 (A1) B      3 (A1) A    ->    2 (B1) A      2 (B1) B     
  0.0797727965       3 (A1) B      3 (A1) A    ->    2 (B1) B      2 (B1) A     
 -0.0785684983       3 (A1) A      1 (B1) B    ->    4 (A1) A      2 (B1) B     
  0.0785684983       3 (A1) A      1 (B1) B    ->    2 (B1) B      4 (A1) A     
 -0.0785684983       1 (B1) A      3 (A1) B    ->    2 (B1) A      4 (A1) B     
  0.0785684983       1 (B1) A      3 (A1) B    ->    4 (A1) B      2 (B1) A     
  0.0785684983       3 (A1) B      1 (B1) A    ->    2 (B1) A      4 (A1) B     
 -0.0785684983       3 (A1) B      1 (B1) A    ->    4 (A1) B      2 (B1) A     
  0.0785684983       1 (B1) B      3 (A1) A    ->    4 (A1) A      2 (B1) B     
 -0.0785684983       1 (B1) B      3 (A1) A    ->    2 (B1) B      4 (A1) A     
 -0.0523921972       3 (A1) A      1 (B1) B    ->    2 (B1) A      4 (A1) B     
  0.0523921972       3 (A1) A      1 (B1) B    ->    4 (A1) B      2 (B1) A     
 -0.0523921972       1 (B1) A      3 (A1) B    ->    4 (A1) A      2 (B1) B     
  0.0523921972       1 (B1) A      3 (A1) B    ->    2 (B1) B      4 (A1) A     
  0.0523921972       3 (A1) B      1 (B1) A    ->    4 (A1) A      2 (B1) B     
 -0.0523921972       3 (A1) B      1 (B1) A    ->    2 (B1) B      4 (A1) A     
  0.0523921972       1 (B1) B      3 (A1) A    ->    2 (B1) A      4 (A1) B     
 -0.0523921972       1 (B1) B      3 (A1) A    ->    4 (A1) B      2 (B1) A     
 -0.0440117239       1 (B1) A      1 (B1) B    ->    4 (A1) A      4 (A1) B     
  0.0440117239       1 (B1) A      1 (B1) B    ->    4 (A1) B      4 (A1) A     
  0.0440117239       1 (B1) B      1 (B1) A    ->    4 (A1) A      4 (A1) B     
 -0.0440117239       1 (B1) B      1 (B1) A    ->    4 (A1) B      4 (A1) A     
  0.0306659928       2 (A1) A      1 (B1) B    ->    4 (A1) A      2 (B1) B     
 -0.0306659928       2 (A1) A      1 (B1) B    ->    2 (B1) B      4 (A1) A     
  0.0306659928       1 (B1) A      2 (A1) B    ->    2 (B1) A      4 (A1) B     
 -0.0306659928       1 (B1) A      2 (A1) B    ->    4 (A1) B      2 (B1) A     
 -0.0306659928       2 (A1) B      1 (B1) A    ->    2 (B1) A      4 (A1) B     
  0.0306659928       2 (A1) B      1 (B1) A    ->    4 (A1) B      2 (B1) A     
 -0.0306659928       1 (B1) B      2 (A1) A    ->    4 (A1) A      2 (B1) B     
  0.0306659928       1 (B1) B      2 (A1) A    ->    2 (B1) B      4 (A1) A     
 -0.0261118465       3 (A1) A      1 (B1) A    ->    4 (A1) A      2 (B1) A     
  0.0261118465       3 (A1) A      1 (B1) A    ->    2 (B1) A      4 (A1) A     
  0.0261118465       1 (B1) A      3 (A1) A    ->    4 (A1) A      2 (B1) A     
 -0.0261118465       1 (B1) A      3 (A1) A    ->    2 (B1) A      4 (A1) A     
 -0.0261118465       3 (A1) B      1 (B1) B    ->    4 (A1) B      2 (B1) B     
  0.0261118465       3 (A1) B      1 (B1) B    ->    2 (B1) B      4 (A1) B     
  0.0261118465       1 (B1) B      3 (A1) B    ->    4 (A1) B      2 (B1) B     
 -0.0261118465       1 (B1) B      3 (A1) B    ->    2 (B1) B      4 (A1) B     
  0.0215787930       2 (A1) A      3 (A1) B    ->    2 (B1) A      2 (B1) B     
  0.0215787930       3 (A1) A      2 (A1) B    ->    2 (B1) A      2 (B1) B     
 -0.0215787930       2 (A1) A      3 (A1) B    ->    2 (B1) B      2 (B1) A     
 -0.0215787930       3 (A1) A      2 (A1) B    ->    2 (B1) B      2 (B1) A     
 -0.0215787930       3 (A1) B      2 (A1) A    ->    2 (B1) A      2 (B1) B     
 -0.0215787930       2 (A1) B      3 (A1) A    ->    2 (B1) A      2 (B1) B     
  0.0215787930       2 (A1) B      3 (A1) A    ->    2 (B1) B      2 (B1) A     
  0.0215787930       3 (A1) B      2 (A1) A    ->    2 (B1) B      2 (B1) A     
 -0.0213320834       1 (B2) A      1 (B2) B    ->    4 (A1) A      4 (A1) B     
  0.0213320834       1 (B2) A      1 (B2) B    ->    4 (A1) B      4 (A1) A     
  0.0213320834       1 (B2) B      1 (B2) A    ->    4 (A1) A      4 (A1) B     
 -0.0213320834       1 (B2) B      1 (B2) A    ->    4 (A1) B      4 (A1) A     
  0.0165920605       2 (A1) A      1 (B1) A    ->    4 (A1) A      2 (B1) A     
 -0.0165920605       2 (A1) A      1 (B1) A    ->    2 (B1) A      4 (A1) A     
 -0.0165920605       1 (B1) A      2 (A1) A    ->    4 (A1) A      2 (B1) A     
  0.0165920605       1 (B1) A      2 (A1) A    ->    2 (B1) A      4 (A1) A     
  0.0165920605       2 (A1) B      1 (B1) B    ->    4 (A1) B      2 (B1) B     
 -0.0165920605       2 (A1) B      1 (B1) B    ->    2 (B1) B      4 (A1) B     
 -0.0165920605       1 (B1) B      2 (A1) B    ->    4 (A1) B      2 (B1) B     
  0.0165920605       1 (B1) B      2 (A1) B    ->    2 (B1) B      4 (A1) B     
  0.0140846393       2 (A1) A      1 (B1) B    ->    2 (B1) A      4 (A1) B     
 -0.0140846393       2 (A1) A      1 (B1) B    ->    4 (A1) B      2 (B1) A     
  0.0140846393       1 (B1) A      2 (A1) B    ->    4 (A1) A      2 (B1) B     
 -0.0140846393       1 (B1) A      2 (A1) B    ->    2 (B1) B      4 (A1) A     
 -0.0140846393       2 (A1) B      1 (B1) A    ->    4 (A1) A      2 (B1) B     
  0.0140846393       2 (A1) B      1 (B1) A    ->    2 (B1) B      4 (A1) A     
 -0.0140846393       1 (B1) B      2 (A1) A    ->    2 (B1) A      4 (A1) B     
  0.0140846393       1 (B1) B      2 (A1) A    ->    4 (A1) B      2 (B1) A     
 -0.0114931191       2 (A1) A      2 (A1) B    ->    2 (B1) A      2 (B1) B     
  0.0114931191       2 (A1) A      2 (A1) B    ->    2 (B1) B      2 (B1) A     
  0.0114931191       2 (A1) B      2 (A1) A    ->    2 (B1) A      2 (B1) B     
 -0.0114931191       2 (A1) B      2 (A1) A    ->    2 (B1) B      2 (B1) A     
  0.0075313093       2 (A1) A      2 (A1) B    ->    4 (A1) A      4 (A1) B     
 -0.0075313093       2 (A1) A      2 (A1) B    ->    4 (A1) B      4 (A1) A     
 -0.0075313093       2 (A1) B      2 (A1) A    ->    4 (A1) A      4 (A1) B     
  0.0075313093       2 (A1) B      2 (A1) A    ->    4 (A1) B      4 (A1) A     
 -0.0067913319       1 (B2) A      1 (B2) B    ->    2 (B1) A      2 (B1) B     
  0.0067913319       1 (B2) A      1 (B2) B    ->    2 (B1) B      2 (B1) A     
  0.0067913319       1 (B2) B      1 (B2) A    ->    2 (B1) A      2 (B1) B     
 -0.0067913319       1 (B2) B      1 (B2) A    ->    2 (B1) B      2 (B1) A     
 -0.0012007531       2 (A1) A      3 (A1) B    ->    4 (A1) A      4 (A1) B     
 -0.0012007531       3 (A1) A      2 (A1) B    ->    4 (A1) A      4 (A1) B     
  0.0012007531       2 (A1) A      3 (A1) B    ->    4 (A1) B      4 (A1) A     
  0.0012007531       3 (A1) A      2 (A1) B    ->    4 (A1) B      4 (A1) A     
  0.0012007531       3 (A1) B      2 (A1) A    ->    4 (A1) A      4 (A1) B     
  0.0012007531       2 (A1) B      3 (A1) A    ->    4 (A1) A      4 (A1) B     
 -0.0012007531       2 (A1) B      3 (A1) A    ->    4 (A1) B      4 (A1) A     
 -0.0012007531       3 (A1) B      2 (A1) A    ->    4 (A1) B      4 (A1) A     
 -0.0008931797       1 (B1) A      1 (B1) B    ->    2 (B1) A      2 (B1) B     
  0.0008931797       1 (B1) A      1 (B1) B    ->    2 (B1) B      2 (B1) A     
  0.0008931797       1 (B1) B      1 (B1) A    ->    2 (B1) A      2 (B1) B     
 -0.0008931797       1 (B1) B      1 (B1) A    ->    2 (B1) B      2 (B1) A     

              Summary of significant orbitals:

               Number  Type             Irrep      Energy
               2       Occ  Alpha       2 (A1)     -1.3005
               4       Occ  Alpha       3 (A1)     -0.4602
               3       Occ  Alpha       1 (B1)     -0.6493
               5       Occ  Alpha       1 (B2)     -0.3963
               2       Occ  Beta        2 (A1)     -1.3005
               4       Occ  Beta        3 (A1)     -0.4602
               3       Occ  Beta        1 (B1)     -0.6493
               5       Occ  Beta        1 (B2)     -0.3963
               6       Vir  Alpha       4 (A1)      0.6648
               7       Vir  Alpha       2 (B1)      0.8133
               6       Vir  Beta        4 (A1)      0.6648
               7       Vir  Beta        2 (B1)      0.8133


 EEs and amplitudes of EOMEE has be exported to fchk file
Running a double precision version
      EOM-CCSD/MP2 left amplitudes will be solved using Davidson.
        Amplitudes will be solved using MOM  algorithm.
     Hard-coded thresholds: 
     LinDepThresh=1.00e-15  NormThresh=1.00e-06  ReorthogonThresh=1.00e-02

      Roots     MaxVec    MaxIter   Precond   Conv      Shift    
      1         120       60        1         1.00e-05  0.00e+00  
 ------------------------------------------------------------------------------
      Iter ConvRoots NVecs ResNorm Current eigenvalues (eV)
 ------------------------------------------------------------------------------
      0    0      1     3.07e-04   17.6911   
      1    0      2     4.06e-05   17.6910   
      2    1      3     3.04e-06   17.6910*  

     Davidson procedure converged

 Excited state properties for  EOMEE-CCSD transition 1/A1
 Dipole moment (a.u.): 0.198325 (X 0.000000, Y 0.000000, Z 0.198325)
 R-squared (a.u.): 18.548031 (XX 8.137166, YY 4.644773, ZZ 5.766093)
 Gauge origin (a.u.): (0.000000, 0.000000, 0.000000)
 Angular momentum (a.u.) against gauge origin: 
 (X 0.000000i, Y 0.000000i, Z 0.000000i)
 Traces of the OPDMs: Tr(AA) 5.000000, Tr(BB) 5.000000

        Solving for EOMEE-CCSD A2 singlet states.

Running a double precision version
        EOMEE-CCSD/MP2 right amplitudes will be solved using Davidson.
        Amplitudes will be solved using standard  algorithm.
     Hard-coded thresholds: 
     LinDepThresh=1.00e-15  NormThresh=1.00e-06  ReorthogonThresh=1.00e-02

      Roots     MaxVec    MaxIter   Precond   Conv      Shift    
      1         120       60        1         1.00e-05  0.00e+00  
 ------------------------------------------------------------------------------
      Iter ConvRoots NVecs ResNorm Current eigenvalues (eV)
 ------------------------------------------------------------------------------
      0    0      1     4.03e-02   17.7120   
      1    0      2     3.78e-03   16.7502   
      2    0      3     5.69e-05   16.6907   
      3    1      4     1.38e-06   16.6906*  

     Davidson procedure converged

 EOMEE transition 1/A2
 Total energy = -74.37414539 a.u.  Excitation energy = 16.69062339 eV.
 R0^2 = 0.0000  R1^2 = 0.9628  R2^2 = 0.0372  Res^2 = 1.38e-06
 Conv-d = yes

 Amplitude    Transitions between orbitals
 -0.6938256734       1 (B2) A                  ->    2 (B1) A                   
 -0.6938256734       1 (B2) B                  ->    2 (B1) B                   
 -0.0774535777       1 (B1) A      1 (B2) B    ->    2 (B1) A      2 (B1) B     
  0.0774535777       1 (B1) A      1 (B2) B    ->    2 (B1) B      2 (B1) A     
 -0.0774535777       1 (B2) A      1 (B1) B    ->    2 (B1) A      2 (B1) B     
  0.0774535777       1 (B2) A      1 (B1) B    ->    2 (B1) B      2 (B1) A     
  0.0774535777       1 (B1) B      1 (B2) A    ->    2 (B1) A      2 (B1) B     
 -0.0774535777       1 (B1) B      1 (B2) A    ->    2 (B1) B      2 (B1) A     
  0.0774535777       1 (B2) B      1 (B1) A    ->    2 (B1) A      2 (B1) B     
 -0.0774535777       1 (B2) B      1 (B1) A    ->    2 (B1) B      2 (B1) A     
 -0.0565423671       1 (B1) A      1 (B2) B    ->    4 (A1) A      4 (A1) B     
  0.0565423671       1 (B1) A      1 (B2) B    ->    4 (A1) B      4 (A1) A     
 -0.0565423671       1 (B2) A      1 (B1) B    ->    4 (A1) A      4 (A1) B     
  0.0565423671       1 (B2) A      1 (B1) B    ->    4 (A1) B      4 (A1) A     
  0.0565423671       1 (B1) B      1 (B2) A    ->    4 (A1) A      4 (A1) B     
 -0.0565423671       1 (B1) B      1 (B2) A    ->    4 (A1) B      4 (A1) A     
  0.0565423671       1 (B2) B      1 (B1) A    ->    4 (A1) A      4 (A1) B     
 -0.0565423671       1 (B2) B      1 (B1) A    ->    4 (A1) B      4 (A1) A     
  0.0557897613       3 (A1) A      1 (B2) B    ->    4 (A1) A      2 (B1) B     
 -0.0557897613       3 (A1) A      1 (B2) B    ->    2 (B1) B      4 (A1) A     
  0.0557897613       1 (B2) A      3 (A1) B    ->    2 (B1) A      4 (A1) B     
 -0.0557897613       1 (B2) A      3 (A1) B    ->    4 (A1) B      2 (B1) A     
 -0.0557897613       3 (A1) B      1 (B2) A    ->    2 (B1) A      4 (A1) B     
  0.0557897613       3 (A1) B      1 (B2) A    ->    4 (A1) B      2 (B1) A     
 -0.0557897613       1 (B2) B      3 (A1) A    ->    4 (A1) A      2 (B1) B     
  0.0557897613       1 (B2) B      3 (A1) A    ->    2 (B1) B      4 (A1) A     
  0.0537108432       3 (A1) A      1 (B2) B    ->    2 (B1) A      4 (A1) B     
 -0.0537108432       3 (A1) A      1 (B2) B    ->    4 (A1) B      2 (B1) A     
  0.0537108432       1 (B2) A      3 (A1) B    ->    4 (A1) A      2 (B1) B     
 -0.0537108432       1 (B2) A      3 (A1) B    ->    2 (B1) B      4 (A1) A     
 -0.0537108432       3 (A1) B      1 (B2) A    ->    4 (A1) A      2 (B1) B     
  0.0537108432       3 (A1) B      1 (B2) A    ->    2 (B1) B      4 (A1) A     
 -0.0537108432       1 (B2) B      3 (A1) A    ->    2 (B1) A      4 (A1) B     
  0.0537108432       1 (B2) B      3 (A1) A    ->    4 (A1) B      2 (B1) A     
  0.0415070207       2 (A1) A      1 (B2) B    ->    2 (B1) A      4 (A1) B     
 -0.0415070207       2 (A1) A      1 (B2) B    ->    4 (A1) B      2 (B1) A     
  0.0415070207       1 (B2) A      2 (A1) B    ->    4 (A1) A      2 (B1) B     
 -0.0415070207       1 (B2) A      2 (A1) B    ->    2 (B1) B      4 (A1) A     
 -0.0415070207       2 (A1) B      1 (B2) A    ->    4 (A1) A      2 (B1) B     
  0.0415070207       2 (A1) B      1 (B2) A    ->    2 (B1) B      4 (A1) A     
 -0.0415070207       1 (B2) B      2 (A1) A    ->    2 (B1) A      4 (A1) B     
  0.0415070207       1 (B2) B      2 (A1) A    ->    4 (A1) B      2 (B1) A     
  0.0410534476       2 (A1) A      1 (B2) B    ->    4 (A1) A      2 (B1) B     
 -0.0410534476       2 (A1) A      1 (B2) B    ->    2 (B1) B      4 (A1) A     
  0.0410534476       1 (B2) A      2 (A1) B    ->    2 (B1) A      4 (A1) B     
 -0.0410534476       1 (B2) A      2 (A1) B    ->    4 (A1) B      2 (B1) A     
 -0.0410534476       2 (A1) B      1 (B2) A    ->    2 (B1) A      4 (A1) B     
  0.0410534476       2 (A1) B      1 (B2) A    ->    4 (A1) B      2 (B1) A     
 -0.0410534476       1 (B2) B      2 (A1) A    ->    4 (A1) A      2 (B1) B     
  0.0410534476       1 (B2) B      2 (A1) A    ->    2 (B1) B      4 (A1) A     
  0.0019884213       3 (A1) A      1 (B2) A    ->    4 (A1) A      2 (B1) A     
 -0.0019884213       3 (A1) A      1 (B2) A    ->    2 (B1) A      4 (A1) A     
 -0.0019884213       1 (B2) A      3 (A1) A    ->    4 (A1) A      2 (B1) A     
  0.0019884213       1 (B2) A      3 (A1) A    ->    2 (B1) A      4 (A1) A     
  0.0019884213       3 (A1) B      1 (B2) B    ->    4 (A1) B      2 (B1) B     
 -0.0019884213       3 (A1) B      1 (B2) B    ->    2 (B1) B      4 (A1) B     
 -0.0019884213       1 (B2) B      3 (A1) B    ->    4 (A1) B      2 (B1) B     
  0.0019884213       1 (B2) B      3 (A1) B    ->    2 (B1) B      4 (A1) B     
 -0.0005609063       2 (A1) A      1 (B2) A    ->    4 (A1) A      2 (B1) A     
  0.0005609063       2 (A1) A      1 (B2) A    ->    2 (B1) A      4 (A1) A     
  0.0005609063       1 (B2) A      2 (A1) A    ->    4 (A1) A      2 (B1) A     
 -0.0005609063       1 (B2) A      2 (A1) A    ->    2 (B1) A      4 (A1) A     
 -0.0005609063       2 (A1) B      1 (B2) B    ->    4 (A1) B      2 (B1) B     
  0.0005609063       2 (A1) B      1 (B2) B    ->    2 (B1) B      4 (A1) B     
  0.0005609063       1 (B2) B      2 (A1) B    ->    4 (A1) B      2 (B1) B     
 -0.0005609063       1 (B2) B      2 (A1) B    ->    2 (B1) B      4 (A1) B     

              Summary of significant orbitals:

               Number  Type             Irrep      Energy
               2       Occ  Alpha       2 (A1)     -1.3005
               4       Occ  Alpha       3 (A1)     -0.4602
               3       Occ  Alpha       1 (B1)     -0.6493
               5       Occ  Alpha       1 (B2)     -0.3963
               2       Occ  Beta        2 (A1)     -1.3005
               4       Occ  Beta        3 (A1)     -0.4602
               3       Occ  Beta        1 (B1)     -0.6493
               5       Occ  Beta        1 (B2)     -0.3963
               6       Vir  Alpha       4 (A1)      0.6648
               7       Vir  Alpha       2 (B1)      0.8133
               6       Vir  Beta        4 (A1)      0.6648
               7       Vir  Beta        2 (B1)      0.8133


 EEs and amplitudes of EOMEE has be exported to fchk file
Running a double precision version
      EOM-CCSD/MP2 left amplitudes will be solved using Davidson.
        Amplitudes will be solved using MOM  algorithm.
     Hard-coded thresholds: 
     LinDepThresh=1.00e-15  NormThresh=1.00e-06  ReorthogonThresh=1.00e-02

      Roots     MaxVec    MaxIter   Precond   Conv      Shift    
      1         120       60        1         1.00e-05  0.00e+00  
 ------------------------------------------------------------------------------
      Iter ConvRoots NVecs ResNorm Current eigenvalues (eV)
 ------------------------------------------------------------------------------
      0    0      1     1.68e-04   16.6906   
      1    0      2     1.73e-05   16.6905   
      2    1      3     2.14e-07   16.6905*  

     Davidson procedure converged

 Excited state properties for  EOMEE-CCSD transition 1/A2
 Dipole moment (a.u.): 0.258225 (X 0.000000, Y 0.000000, Z -0.258225)
 R-squared (a.u.): 18.590678 (XX 8.334559, YY 3.940616, ZZ 6.315503)
 Gauge origin (a.u.): (0.000000, 0.000000, 0.000000)
 Angular momentum (a.u.) against gauge origin: 
 (X 0.000000i, Y 0.000000i, Z 0.000000i)
 Traces of the OPDMs: Tr(AA) 5.000000, Tr(BB) 5.000000

        Solving for EOMEE-CCSD B1 singlet states.

Running a double precision version
        EOMEE-CCSD/MP2 right amplitudes will be solved using Davidson.
        Amplitudes will be solved using standard  algorithm.
     Hard-coded thresholds: 
     LinDepThresh=1.00e-15  NormThresh=1.00e-06  ReorthogonThresh=1.00e-02

      Roots     MaxVec    MaxIter   Precond   Conv      Shift    
      1         120       60        1         1.00e-05  0.00e+00  
 ------------------------------------------------------------------------------
      Iter ConvRoots NVecs ResNorm Current eigenvalues (eV)
 ------------------------------------------------------------------------------
      0    0      1     4.76e-02   22.3792   
      1    0      2     1.11e-02   21.3533   
      2    0      3     1.99e-03   20.9530   
      3    0      4     5.73e-04   20.8763   
      4    0      5     1.49e-05   20.8625   
      5    1      6     4.04e-07   20.8623*  

     Davidson procedure converged

 EOMEE transition 1/B1
 Total energy = -74.22083884 a.u.  Excitation energy = 20.86230664 eV.
 R0^2 = 0.0000  R1^2 = 0.9573  R2^2 = 0.0427  Res^2 = 4.04e-07
 Conv-d = yes

 Amplitude    Transitions between orbitals
 -0.6518008844       3 (A1) A                  ->    2 (B1) A                   
 -0.6518008844       3 (A1) B                  ->    2 (B1) B                   
 -0.2319067856       1 (B1) A                  ->    4 (A1) A                   
 -0.2319067856       1 (B1) B                  ->    4 (A1) B                   
  0.0040945287       2 (A1) A                  ->    2 (B1) A                   
  0.0040945287       2 (A1) B                  ->    2 (B1) B                   
  0.1048397987       3 (A1) A      3 (A1) B    ->    4 (A1) A      2 (B1) B     
  0.1048397987       3 (A1) A      3 (A1) B    ->    2 (B1) A      4 (A1) B     
 -0.1048397987       3 (A1) A      3 (A1) B    ->    4 (A1) B      2 (B1) A     
 -0.1048397987       3 (A1) A      3 (A1) B    ->    2 (B1) B      4 (A1) A     
 -0.1048397987       3 (A1) B      3 (A1) A    ->    4 (A1) A      2 (B1) B     
 -0.1048397987       3 (A1) B      3 (A1) A    ->    2 (B1) A      4 (A1) B     
  0.1048397987       3 (A1) B      3 (A1) A    ->    4 (A1) B      2 (B1) A     
  0.1048397987       3 (A1) B      3 (A1) A    ->    2 (B1) B      4 (A1) A     
 -0.0630185273       3 (A1) A      1 (B1) B    ->    4 (A1) A      4 (A1) B     
  0.0630185273       3 (A1) A      1 (B1) B    ->    4 (A1) B      4 (A1) A     
 -0.0630185273       1 (B1) A      3 (A1) B    ->    4 (A1) A      4 (A1) B     
  0.0630185273       1 (B1) A      3 (A1) B    ->    4 (A1) B      4 (A1) A     
  0.0630185273       3 (A1) B      1 (B1) A    ->    4 (A1) A      4 (A1) B     
 -0.0630185273       3 (A1) B      1 (B1) A    ->    4 (A1) B      4 (A1) A     
  0.0630185273       1 (B1) B      3 (A1) A    ->    4 (A1) A      4 (A1) B     
 -0.0630185273       1 (B1) B      3 (A1) A    ->    4 (A1) B      4 (A1) A     
 -0.0434956762       1 (B1) A      1 (B1) B    ->    4 (A1) A      2 (B1) B     
 -0.0434956762       1 (B1) A      1 (B1) B    ->    2 (B1) A      4 (A1) B     
  0.0434956762       1 (B1) A      1 (B1) B    ->    4 (A1) B      2 (B1) A     
  0.0434956762       1 (B1) A      1 (B1) B    ->    2 (B1) B      4 (A1) A     
  0.0434956762       1 (B1) B      1 (B1) A    ->    4 (A1) A      2 (B1) B     
  0.0434956762       1 (B1) B      1 (B1) A    ->    2 (B1) A      4 (A1) B     
 -0.0434956762       1 (B1) B      1 (B1) A    ->    4 (A1) B      2 (B1) A     
 -0.0434956762       1 (B1) B      1 (B1) A    ->    2 (B1) B      4 (A1) A     
  0.0423780645       2 (A1) A      1 (B1) B    ->    2 (B1) A      2 (B1) B     
 -0.0423780645       2 (A1) A      1 (B1) B    ->    2 (B1) B      2 (B1) A     
  0.0423780645       1 (B1) A      2 (A1) B    ->    2 (B1) A      2 (B1) B     
 -0.0423780645       1 (B1) A      2 (A1) B    ->    2 (B1) B      2 (B1) A     
 -0.0423780645       2 (A1) B      1 (B1) A    ->    2 (B1) A      2 (B1) B     
  0.0423780645       2 (A1) B      1 (B1) A    ->    2 (B1) B      2 (B1) A     
 -0.0423780645       1 (B1) B      2 (A1) A    ->    2 (B1) A      2 (B1) B     
  0.0423780645       1 (B1) B      2 (A1) A    ->    2 (B1) B      2 (B1) A     
 -0.0355865532       3 (A1) A      1 (B1) B    ->    2 (B1) A      2 (B1) B     
  0.0355865532       3 (A1) A      1 (B1) B    ->    2 (B1) B      2 (B1) A     
 -0.0355865532       1 (B1) A      3 (A1) B    ->    2 (B1) A      2 (B1) B     
  0.0355865532       1 (B1) A      3 (A1) B    ->    2 (B1) B      2 (B1) A     
  0.0355865532       3 (A1) B      1 (B1) A    ->    2 (B1) A      2 (B1) B     
 -0.0355865532       3 (A1) B      1 (B1) A    ->    2 (B1) B      2 (B1) A     
  0.0355865532       1 (B1) B      3 (A1) A    ->    2 (B1) A      2 (B1) B     
 -0.0355865532       1 (B1) B      3 (A1) A    ->    2 (B1) B      2 (B1) A     
  0.0267603199       2 (A1) A      3 (A1) B    ->    4 (A1) A      2 (B1) B     
  0.0267603199       3 (A1) A      2 (A1) B    ->    2 (B1) A      4 (A1) B     
 -0.0267603199       3 (A1) A      2 (A1) B    ->    4 (A1) B      2 (B1) A     
 -0.0267603199       2 (A1) A      3 (A1) B    ->    2 (B1) B      4 (A1) A     
 -0.0267603199       3 (A1) B      2 (A1) A    ->    4 (A1) A      2 (B1) B     
 -0.0267603199       2 (A1) B      3 (A1) A    ->    2 (B1) A      4 (A1) B     
  0.0267603199       2 (A1) B      3 (A1) A    ->    4 (A1) B      2 (B1) A     
  0.0267603199       3 (A1) B      2 (A1) A    ->    2 (B1) B      4 (A1) A     
  0.0166955920       3 (A1) A      2 (A1) B    ->    4 (A1) A      2 (B1) B     
  0.0166955920       2 (A1) A      3 (A1) B    ->    2 (B1) A      4 (A1) B     
 -0.0166955920       2 (A1) A      3 (A1) B    ->    4 (A1) B      2 (B1) A     
 -0.0166955920       3 (A1) A      2 (A1) B    ->    2 (B1) B      4 (A1) A     
 -0.0166955920       2 (A1) B      3 (A1) A    ->    4 (A1) A      2 (B1) B     
 -0.0166955920       3 (A1) B      2 (A1) A    ->    2 (B1) A      4 (A1) B     
  0.0166955920       3 (A1) B      2 (A1) A    ->    4 (A1) B      2 (B1) A     
  0.0166955920       2 (A1) B      3 (A1) A    ->    2 (B1) B      4 (A1) A     
 -0.0156108736       1 (B2) A      1 (B2) B    ->    4 (A1) A      2 (B1) B     
 -0.0156108736       1 (B2) A      1 (B2) B    ->    2 (B1) A      4 (A1) B     
  0.0156108736       1 (B2) A      1 (B2) B    ->    4 (A1) B      2 (B1) A     
  0.0156108736       1 (B2) A      1 (B2) B    ->    2 (B1) B      4 (A1) A     
  0.0156108736       1 (B2) B      1 (B2) A    ->    4 (A1) A      2 (B1) B     
  0.0156108736       1 (B2) B      1 (B2) A    ->    2 (B1) A      4 (A1) B     
 -0.0156108736       1 (B2) B      1 (B2) A    ->    4 (A1) B      2 (B1) A     
 -0.0156108736       1 (B2) B      1 (B2) A    ->    2 (B1) B      4 (A1) A     
  0.0101704493       2 (A1) A      3 (A1) A    ->    4 (A1) A      2 (B1) A     
 -0.0101704493       3 (A1) A      2 (A1) A    ->    4 (A1) A      2 (B1) A     
 -0.0101704493       2 (A1) A      3 (A1) A    ->    2 (B1) A      4 (A1) A     
  0.0101704493       3 (A1) A      2 (A1) A    ->    2 (B1) A      4 (A1) A     
  0.0101704493       2 (A1) B      3 (A1) B    ->    4 (A1) B      2 (B1) B     
 -0.0101704493       3 (A1) B      2 (A1) B    ->    4 (A1) B      2 (B1) B     
 -0.0101704493       2 (A1) B      3 (A1) B    ->    2 (B1) B      4 (A1) B     
  0.0101704493       3 (A1) B      2 (A1) B    ->    2 (B1) B      4 (A1) B     
 -0.0099479913       2 (A1) A      1 (B1) B    ->    4 (A1) A      4 (A1) B     
  0.0099479913       2 (A1) A      1 (B1) B    ->    4 (A1) B      4 (A1) A     
 -0.0099479913       1 (B1) A      2 (A1) B    ->    4 (A1) A      4 (A1) B     
  0.0099479913       1 (B1) A      2 (A1) B    ->    4 (A1) B      4 (A1) A     
  0.0099479913       2 (A1) B      1 (B1) A    ->    4 (A1) A      4 (A1) B     
 -0.0099479913       2 (A1) B      1 (B1) A    ->    4 (A1) B      4 (A1) A     
  0.0099479913       1 (B1) B      2 (A1) A    ->    4 (A1) A      4 (A1) B     
 -0.0099479913       1 (B1) B      2 (A1) A    ->    4 (A1) B      4 (A1) A     
 -0.0004818200       2 (A1) A      2 (A1) B    ->    4 (A1) A      2 (B1) B     
 -0.0004818200       2 (A1) A      2 (A1) B    ->    2 (B1) A      4 (A1) B     
  0.0004818200       2 (A1) A      2 (A1) B    ->    4 (A1) B      2 (B1) A     
  0.0004818200       2 (A1) A      2 (A1) B    ->    2 (B1) B      4 (A1) A     
  0.0004818200       2 (A1) B      2 (A1) A    ->    4 (A1) A      2 (B1) B     
  0.0004818200       2 (A1) B      2 (A1) A    ->    2 (B1) A      4 (A1) B     
 -0.0004818200       2 (A1) B      2 (A1) A    ->    4 (A1) B      2 (B1) A     
 -0.0004818200       2 (A1) B      2 (A1) A    ->    2 (B1) B      4 (A1) A     

              Summary of significant orbitals:

               Number  Type             Irrep      Energy
               2       Occ  Alpha       2 (A1)     -1.3005
               4       Occ  Alpha       3 (A1)     -0.4602
               3       Occ  Alpha       1 (B1)     -0.6493
               5       Occ  Alpha       1 (B2)     -0.3963
               2       Occ  Beta        2 (A1)     -1.3005
               4       Occ  Beta        3 (A1)     -0.4602
               3       Occ  Beta        1 (B1)     -0.6493
               5       Occ  Beta        1 (B2)     -0.3963
               6       Vir  Alpha       4 (A1)      0.6648
               7       Vir  Alpha       2 (B1)      0.8133
               6       Vir  Beta        4 (A1)      0.6648
               7       Vir  Beta        2 (B1)      0.8133


 EEs and amplitudes of EOMEE has be exported to fchk file
Running a double precision version
      EOM-CCSD/MP2 left amplitudes will be solved using Davidson.
        Amplitudes will be solved using MOM  algorithm.
     Hard-coded thresholds: 
     LinDepThresh=1.00e-15  NormThresh=1.00e-06  ReorthogonThresh=1.00e-02

      Roots     MaxVec    MaxIter   Precond   Conv      Shift    
      1         120       60        1         1.00e-05  0.00e+00  
 ------------------------------------------------------------------------------
      Iter ConvRoots NVecs ResNorm Current eigenvalues (eV)
 ------------------------------------------------------------------------------
      0    0      1     2.14e-04   20.8623   
      1    0      2     2.25e-05   20.8623   
      2    1      3     1.12e-06   20.8623*  

     Davidson procedure converged

 Excited state properties for  EOMEE-CCSD transition 1/B1
 Dipole moment (a.u.): 0.095147 (X 0.000000, Y 0.000000, Z -0.095147)
 R-squared (a.u.): 18.106122 (XX 8.019829, YY 4.489653, ZZ 5.596640)
 Gauge origin (a.u.): (0.000000, 0.000000, 0.000000)
 Angular momentum (a.u.) against gauge origin: 
 (X 0.000000i, Y 0.000000i, Z 0.000000i)
 Traces of the OPDMs: Tr(AA) 5.000000, Tr(BB) 5.000000

        Solving for EOMEE-CCSD B2 singlet states.

Running a double precision version
        EOMEE-CCSD/MP2 right amplitudes will be solved using Davidson.
        Amplitudes will be solved using standard  algorithm.
     Hard-coded thresholds: 
     LinDepThresh=1.00e-15  NormThresh=1.00e-06  ReorthogonThresh=1.00e-02

      Roots     MaxVec    MaxIter   Precond   Conv      Shift    
      1         120       60        1         1.00e-05  0.00e+00  
 ------------------------------------------------------------------------------
      Iter ConvRoots NVecs ResNorm Current eigenvalues (eV)
 ------------------------------------------------------------------------------
      0    0      1     5.46e-02   15.5274   
      1    0      2     3.10e-03   14.2747   
      2    0      3     5.97e-05   14.2231   
      3    1      4     2.45e-06   14.2236*  

     Davidson procedure converged

 EOMEE transition 1/B2
 Total energy = -74.46480849 a.u.  Excitation energy = 14.22355477 eV.
 R0^2 = 0.0000  R1^2 = 0.9589  R2^2 = 0.0411  Res^2 = 2.45e-06
 Conv-d = yes

 Amplitude    Transitions between orbitals
 -0.6924241431       1 (B2) A                  ->    4 (A1) A                   
 -0.6924241431       1 (B2) B                  ->    4 (A1) B                   
 -0.0876793833       1 (B1) A      1 (B2) B    ->    2 (B1) A      4 (A1) B     
  0.0876793833       1 (B1) A      1 (B2) B    ->    4 (A1) B      2 (B1) A     
 -0.0876793833       1 (B2) A      1 (B1) B    ->    4 (A1) A      2 (B1) B     
  0.0876793833       1 (B2) A      1 (B1) B    ->    2 (B1) B      4 (A1) A     
  0.0876793833       1 (B1) B      1 (B2) A    ->    4 (A1) A      2 (B1) B     
 -0.0876793833       1 (B1) B      1 (B2) A    ->    2 (B1) B      4 (A1) A     
  0.0876793833       1 (B2) B      1 (B1) A    ->    2 (B1) A      4 (A1) B     
 -0.0876793833       1 (B2) B      1 (B1) A    ->    4 (A1) B      2 (B1) A     
 -0.0668586478       1 (B1) A      1 (B2) B    ->    4 (A1) A      2 (B1) B     
  0.0668586478       1 (B1) A      1 (B2) B    ->    2 (B1) B      4 (A1) A     
 -0.0668586478       1 (B2) A      1 (B1) B    ->    2 (B1) A      4 (A1) B     
  0.0668586478       1 (B2) A      1 (B1) B    ->    4 (A1) B      2 (B1) A     
  0.0668586478       1 (B1) B      1 (B2) A    ->    2 (B1) A      4 (A1) B     
 -0.0668586478       1 (B1) B      1 (B2) A    ->    4 (A1) B      2 (B1) A     
  0.0668586478       1 (B2) B      1 (B1) A    ->    4 (A1) A      2 (B1) B     
 -0.0668586478       1 (B2) B      1 (B1) A    ->    2 (B1) B      4 (A1) A     
  0.0590370250       2 (A1) A      1 (B2) B    ->    4 (A1) A      4 (A1) B     
 -0.0590370250       2 (A1) A      1 (B2) B    ->    4 (A1) B      4 (A1) A     
  0.0590370250       1 (B2) A      2 (A1) B    ->    4 (A1) A      4 (A1) B     
 -0.0590370250       1 (B2) A      2 (A1) B    ->    4 (A1) B      4 (A1) A     
 -0.0590370250       2 (A1) B      1 (B2) A    ->    4 (A1) A      4 (A1) B     
  0.0590370250       2 (A1) B      1 (B2) A    ->    4 (A1) B      4 (A1) A     
 -0.0590370250       1 (B2) B      2 (A1) A    ->    4 (A1) A      4 (A1) B     
  0.0590370250       1 (B2) B      2 (A1) A    ->    4 (A1) B      4 (A1) A     
  0.0495445995       3 (A1) A      1 (B2) B    ->    4 (A1) A      4 (A1) B     
 -0.0495445995       3 (A1) A      1 (B2) B    ->    4 (A1) B      4 (A1) A     
  0.0495445995       1 (B2) A      3 (A1) B    ->    4 (A1) A      4 (A1) B     
 -0.0495445995       1 (B2) A      3 (A1) B    ->    4 (A1) B      4 (A1) A     
 -0.0495445995       3 (A1) B      1 (B2) A    ->    4 (A1) A      4 (A1) B     
  0.0495445995       3 (A1) B      1 (B2) A    ->    4 (A1) B      4 (A1) A     
 -0.0495445995       1 (B2) B      3 (A1) A    ->    4 (A1) A      4 (A1) B     
  0.0495445995       1 (B2) B      3 (A1) A    ->    4 (A1) B      4 (A1) A     
  0.0436305871       3 (A1) A      1 (B2) B    ->    2 (B1) A      2 (B1) B     
 -0.0436305871       3 (A1) A      1 (B2) B    ->    2 (B1) B      2 (B1) A     
  0.0436305871       1 (B2) A      3 (A1) B    ->    2 (B1) A      2 (B1) B     
 -0.0436305871       1 (B2) A      3 (A1) B    ->    2 (B1) B      2 (B1) A     
 -0.0436305871       3 (A1) B      1 (B2) A    ->    2 (B1) A      2 (B1) B     
  0.0436305871       3 (A1) B      1 (B2) A    ->    2 (B1) B      2 (B1) A     
 -0.0436305871       1 (B2) B      3 (A1) A    ->    2 (B1) A      2 (B1) B     
  0.0436305871       1 (B2) B      3 (A1) A    ->    2 (B1) B      2 (B1) A     
  0.0206694972       1 (B1) A      1 (B2) A    ->    4 (A1) A      2 (B1) A     
 -0.0206694972       1 (B1) A      1 (B2) A    ->    2 (B1) A      4 (A1) A     
 -0.0206694972       1 (B2) A      1 (B1) A    ->    4 (A1) A      2 (B1) A     
  0.0206694972       1 (B2) A      1 (B1) A    ->    2 (B1) A      4 (A1) A     
  0.0206694972       1 (B1) B      1 (B2) B    ->    4 (A1) B      2 (B1) B     
 -0.0206694972       1 (B1) B      1 (B2) B    ->    2 (B1) B      4 (A1) B     
 -0.0206694972       1 (B2) B      1 (B1) B    ->    4 (A1) B      2 (B1) B     
  0.0206694972       1 (B2) B      1 (B1) B    ->    2 (B1) B      4 (A1) B     
  0.0109617142       2 (A1) A      1 (B2) B    ->    2 (B1) A      2 (B1) B     
 -0.0109617142       2 (A1) A      1 (B2) B    ->    2 (B1) B      2 (B1) A     
  0.0109617142       1 (B2) A      2 (A1) B    ->    2 (B1) A      2 (B1) B     
 -0.0109617142       1 (B2) A      2 (A1) B    ->    2 (B1) B      2 (B1) A     
 -0.0109617142       2 (A1) B      1 (B2) A    ->    2 (B1) A      2 (B1) B     
  0.0109617142       2 (A1) B      1 (B2) A    ->    2 (B1) B      2 (B1) A     
 -0.0109617142       1 (B2) B      2 (A1) A    ->    2 (B1) A      2 (B1) B     
  0.0109617142       1 (B2) B      2 (A1) A    ->    2 (B1) B      2 (B1) A     

              Summary of significant orbitals:

               Number  Type             Irrep      Energy
               2       Occ  Alpha       2 (A1)     -1.3005
               4       Occ  Alpha       3 (A1)     -0.4602
               3       Occ  Alpha       1 (B1)     -0.6493
               5       Occ  Alpha       1 (B2)     -0.3963
               2       Occ  Beta        2 (A1)     -1.3005
               4       Occ  Beta        3 (A1)     -0.4602
               3       Occ  Beta        1 (B1)     -0.6493
               5       Occ  Beta        1 (B2)     -0.3963
               6       Vir  Alpha       4 (A1)      0.6648
               7       Vir  Alpha       2 (B1)      0.8133
               6       Vir  Beta        4 (A1)      0.6648
               7       Vir  Beta        2 (B1)      0.8133


 EEs and amplitudes of EOMEE has be exported to fchk file
Running a double precision version
      EOM-CCSD/MP2 left amplitudes will be solved using Davidson.
        Amplitudes will be solved using MOM  algorithm.
     Hard-coded thresholds: 
     LinDepThresh=1.00e-15  NormThresh=1.00e-06  ReorthogonThresh=1.00e-02

      Roots     MaxVec    MaxIter   Precond   Conv      Shift    
      1         120       60        1         1.00e-05  0.00e+00  
 ------------------------------------------------------------------------------
      Iter ConvRoots NVecs ResNorm Current eigenvalues (eV)
 ------------------------------------------------------------------------------
      0    0      1     2.61e-04   14.2236   
      1    1      2     6.35e-06   14.2236*  

     Davidson procedure converged

 Excited state properties for  EOMEE-CCSD transition 1/B2
 Dipole moment (a.u.): 0.006106 (X 0.000000, Y 0.000000, Z -0.006106)
 R-squared (a.u.): 19.044923 (XX 8.370552, YY 4.123046, ZZ 6.551325)
 Gauge origin (a.u.): (0.000000, 0.000000, 0.000000)
 Angular momentum (a.u.) against gauge origin: 
 (X 0.000000i, Y 0.000000i, Z 0.000000i)
 Traces of the OPDMs: Tr(AA) 5.000000, Tr(BB) 5.000000

        Solving for EOMEE-CCSD A1 triplet states.

Running a double precision version
        EOMEE-CCSD/MP2 right amplitudes will be solved using Davidson.
        Amplitudes will be solved using standard  algorithm.
     Hard-coded thresholds: 
     LinDepThresh=1.00e-15  NormThresh=1.00e-06  ReorthogonThresh=1.00e-02

      Roots     MaxVec    MaxIter   Precond   Conv      Shift    
      1         120       60        1         1.00e-05  0.00e+00  
 ------------------------------------------------------------------------------
      Iter ConvRoots NVecs ResNorm Current eigenvalues (eV)
 ------------------------------------------------------------------------------
      0    0      1     3.70e-02   16.3616   
      1    0      2     4.59e-03   15.5692   
      2    0      3     4.71e-04   15.3949   
      3    1      4     7.27e-06   15.3808*  

     Davidson procedure converged

 EOMEE transition 1/A1
 Total energy = -74.42228176 a.u.  Excitation energy = 15.38076612 eV.
 R0^2 = 0.0000  R1^2 = 0.9840  R2^2 = 0.0160  Res^2 = 7.27e-06
 Conv-d = yes

 Amplitude    Transitions between orbitals
  0.6893193631       3 (A1) A                  ->    4 (A1) A                   
 -0.6893193631       3 (A1) B                  ->    4 (A1) B                   
 -0.1150007146       1 (B1) A                  ->    2 (B1) A                   
  0.1150007146       1 (B1) B                  ->    2 (B1) B                   
  0.0599588750       2 (A1) A                  ->    4 (A1) A                   
 -0.0599588750       2 (A1) B                  ->    4 (A1) B                   
  0.0738576642       3 (A1) A      1 (B1) B    ->    4 (A1) A      2 (B1) B     
 -0.0738576642       3 (A1) A      1 (B1) B    ->    2 (B1) B      4 (A1) A     
 -0.0738576642       1 (B1) A      3 (A1) B    ->    2 (B1) A      4 (A1) B     
  0.0738576642       1 (B1) A      3 (A1) B    ->    4 (A1) B      2 (B1) A     
  0.0738576642       3 (A1) B      1 (B1) A    ->    2 (B1) A      4 (A1) B     
 -0.0738576642       3 (A1) B      1 (B1) A    ->    4 (A1) B      2 (B1) A     
 -0.0738576642       1 (B1) B      3 (A1) A    ->    4 (A1) A      2 (B1) B     
  0.0738576642       1 (B1) B      3 (A1) A    ->    2 (B1) B      4 (A1) A     
  0.0310308757       3 (A1) A      1 (B1) B    ->    2 (B1) A      4 (A1) B     
 -0.0310308757       3 (A1) A      1 (B1) B    ->    4 (A1) B      2 (B1) A     
 -0.0310308757       1 (B1) A      3 (A1) B    ->    4 (A1) A      2 (B1) B     
  0.0310308757       1 (B1) A      3 (A1) B    ->    2 (B1) B      4 (A1) A     
  0.0310308757       3 (A1) B      1 (B1) A    ->    4 (A1) A      2 (B1) B     
 -0.0310308757       3 (A1) B      1 (B1) A    ->    2 (B1) B      4 (A1) A     
 -0.0310308757       1 (B1) B      3 (A1) A    ->    2 (B1) A      4 (A1) B     
  0.0310308757       1 (B1) B      3 (A1) A    ->    4 (A1) B      2 (B1) A     
 -0.0238874413       2 (A1) A      1 (B1) B    ->    4 (A1) A      2 (B1) B     
  0.0238874413       2 (A1) A      1 (B1) B    ->    2 (B1) B      4 (A1) A     
  0.0238874413       1 (B1) A      2 (A1) B    ->    2 (B1) A      4 (A1) B     
 -0.0238874413       1 (B1) A      2 (A1) B    ->    4 (A1) B      2 (B1) A     
 -0.0238874413       2 (A1) B      1 (B1) A    ->    2 (B1) A      4 (A1) B     
  0.0238874413       2 (A1) B      1 (B1) A    ->    4 (A1) B      2 (B1) A     
  0.0238874413       1 (B1) B      2 (A1) A    ->    4 (A1) A      2 (B1) B     
 -0.0238874413       1 (B1) B      2 (A1) A    ->    2 (B1) B      4 (A1) A     
  0.0226232961       3 (A1) A      1 (B1) A    ->    4 (A1) A      2 (B1) A     
 -0.0226232961       3 (A1) A      1 (B1) A    ->    2 (B1) A      4 (A1) A     
 -0.0226232961       1 (B1) A      3 (A1) A    ->    4 (A1) A      2 (B1) A     
  0.0226232961       1 (B1) A      3 (A1) A    ->    2 (B1) A      4 (A1) A     
 -0.0226232961       3 (A1) B      1 (B1) B    ->    4 (A1) B      2 (B1) B     
  0.0226232961       3 (A1) B      1 (B1) B    ->    2 (B1) B      4 (A1) B     
  0.0226232961       1 (B1) B      3 (A1) B    ->    4 (A1) B      2 (B1) B     
 -0.0226232961       1 (B1) B      3 (A1) B    ->    2 (B1) B      4 (A1) B     
  0.0139986695       2 (A1) A      1 (B1) B    ->    2 (B1) A      4 (A1) B     
 -0.0139986695       2 (A1) A      1 (B1) B    ->    4 (A1) B      2 (B1) A     
 -0.0139986695       1 (B1) A      2 (A1) B    ->    4 (A1) A      2 (B1) B     
  0.0139986695       1 (B1) A      2 (A1) B    ->    2 (B1) B      4 (A1) A     
  0.0139986695       2 (A1) B      1 (B1) A    ->    4 (A1) A      2 (B1) B     
 -0.0139986695       2 (A1) B      1 (B1) A    ->    2 (B1) B      4 (A1) A     
 -0.0139986695       1 (B1) B      2 (A1) A    ->    2 (B1) A      4 (A1) B     
  0.0139986695       1 (B1) B      2 (A1) A    ->    4 (A1) B      2 (B1) A     
  0.0134146282       2 (A1) A      3 (A1) B    ->    2 (B1) A      2 (B1) B     
 -0.0134146282       3 (A1) A      2 (A1) B    ->    2 (B1) A      2 (B1) B     
 -0.0134146282       2 (A1) A      3 (A1) B    ->    2 (B1) B      2 (B1) A     
  0.0134146282       3 (A1) A      2 (A1) B    ->    2 (B1) B      2 (B1) A     
 -0.0134146282       3 (A1) B      2 (A1) A    ->    2 (B1) A      2 (B1) B     
  0.0134146282       2 (A1) B      3 (A1) A    ->    2 (B1) A      2 (B1) B     
 -0.0134146282       2 (A1) B      3 (A1) A    ->    2 (B1) B      2 (B1) A     
  0.0134146282       3 (A1) B      2 (A1) A    ->    2 (B1) B      2 (B1) A     
  0.0089638189       2 (A1) A      3 (A1) B    ->    4 (A1) A      4 (A1) B     
 -0.0089638189       3 (A1) A      2 (A1) B    ->    4 (A1) A      4 (A1) B     
 -0.0089638189       2 (A1) A      3 (A1) B    ->    4 (A1) B      4 (A1) A     
  0.0089638189       3 (A1) A      2 (A1) B    ->    4 (A1) B      4 (A1) A     
 -0.0089638189       3 (A1) B      2 (A1) A    ->    4 (A1) A      4 (A1) B     
  0.0089638189       2 (A1) B      3 (A1) A    ->    4 (A1) A      4 (A1) B     
 -0.0089638189       2 (A1) B      3 (A1) A    ->    4 (A1) B      4 (A1) A     
  0.0089638189       3 (A1) B      2 (A1) A    ->    4 (A1) B      4 (A1) A     
 -0.0078756794       2 (A1) A      1 (B1) A    ->    4 (A1) A      2 (B1) A     
  0.0078756794       2 (A1) A      1 (B1) A    ->    2 (B1) A      4 (A1) A     
  0.0078756794       1 (B1) A      2 (A1) A    ->    4 (A1) A      2 (B1) A     
 -0.0078756794       1 (B1) A      2 (A1) A    ->    2 (B1) A      4 (A1) A     
  0.0078756794       2 (A1) B      1 (B1) B    ->    4 (A1) B      2 (B1) B     
 -0.0078756794       2 (A1) B      1 (B1) B    ->    2 (B1) B      4 (A1) B     
 -0.0078756794       1 (B1) B      2 (A1) B    ->    4 (A1) B      2 (B1) B     
  0.0078756794       1 (B1) B      2 (A1) B    ->    2 (B1) B      4 (A1) B     

              Summary of significant orbitals:

               Number  Type             Irrep      Energy
               2       Occ  Alpha       2 (A1)     -1.3005
               4       Occ  Alpha       3 (A1)     -0.4602
               3       Occ  Alpha       1 (B1)     -0.6493
               2       Occ  Beta        2 (A1)     -1.3005
               4       Occ  Beta        3 (A1)     -0.4602
               3       Occ  Beta        1 (B1)     -0.6493
               6       Vir  Alpha       4 (A1)      0.6648
               7       Vir  Alpha       2 (B1)      0.8133
               6       Vir  Beta        4 (A1)      0.6648
               7       Vir  Beta        2 (B1)      0.8133


 EEs and amplitudes of EOMEE has be exported to fchk file
Running a double precision version
      EOM-CCSD/MP2 left amplitudes will be solved using Davidson.
        Amplitudes will be solved using MOM  algorithm.
     Hard-coded thresholds: 
     LinDepThresh=1.00e-15  NormThresh=1.00e-06  ReorthogonThresh=1.00e-02

      Roots     MaxVec    MaxIter   Precond   Conv      Shift    
      1         120       60        1         1.00e-05  0.00e+00  
 ------------------------------------------------------------------------------
      Iter ConvRoots NVecs ResNorm Current eigenvalues (eV)
 ------------------------------------------------------------------------------
      0    0      1     1.49e-04   15.3808   
      1    1      2     9.37e-06   15.3805*  

     Davidson procedure converged

 Excited state properties for  EOMEE-CCSD transition 1/A1
 Dipole moment (a.u.): 0.115944 (X 0.000000, Y 0.000000, Z 0.115944)
 R-squared (a.u.): 18.788521 (XX 8.265822, YY 4.684709, ZZ 5.837990)
 Gauge origin (a.u.): (0.000000, 0.000000, 0.000000)
 Angular momentum (a.u.) against gauge origin: 
 (X 0.000000i, Y 0.000000i, Z 0.000000i)
 Traces of the OPDMs: Tr(AA) 5.000000, Tr(BB) 5.000000

        Solving for EOMEE-CCSD A2 triplet states.

Running a double precision version
        EOMEE-CCSD/MP2 right amplitudes will be solved using Davidson.
        Amplitudes will be solved using standard  algorithm.
     Hard-coded thresholds: 
     LinDepThresh=1.00e-15  NormThresh=1.00e-06  ReorthogonThresh=1.00e-02

      Roots     MaxVec    MaxIter   Precond   Conv      Shift    
      1         120       60        1         1.00e-05  0.00e+00  
 ------------------------------------------------------------------------------
      Iter ConvRoots NVecs ResNorm Current eigenvalues (eV)
 ------------------------------------------------------------------------------
      0    0      1     2.93e-02   16.4047   
      1    0      2     3.32e-03   15.7432   
      2    0      3     3.30e-05   15.6760   
      3    1      4     1.50e-06   15.6756*  

     Davidson procedure converged

 EOMEE transition 1/A2
 Total energy = -74.41144664 a.u.  Excitation energy = 15.67560469 eV.
 R0^2 = 0.0000  R1^2 = 0.9722  R2^2 = 0.0278  Res^2 = 1.50e-06
 Conv-d = yes

 Amplitude    Transitions between orbitals
 -0.6972204631       1 (B2) A                  ->    2 (B1) A                   
  0.6972204631       1 (B2) B                  ->    2 (B1) B                   
 -0.0635253293       3 (A1) A      1 (B2) B    ->    4 (A1) A      2 (B1) B     
  0.0635253293       3 (A1) A      1 (B2) B    ->    2 (B1) B      4 (A1) A     
  0.0635253293       1 (B2) A      3 (A1) B    ->    2 (B1) A      4 (A1) B     
 -0.0635253293       1 (B2) A      3 (A1) B    ->    4 (A1) B      2 (B1) A     
 -0.0635253293       3 (A1) B      1 (B2) A    ->    2 (B1) A      4 (A1) B     
  0.0635253293       3 (A1) B      1 (B2) A    ->    4 (A1) B      2 (B1) A     
  0.0635253293       1 (B2) B      3 (A1) A    ->    4 (A1) A      2 (B1) B     
 -0.0635253293       1 (B2) B      3 (A1) A    ->    2 (B1) B      4 (A1) A     
  0.0614641638       1 (B1) A      1 (B2) B    ->    4 (A1) A      4 (A1) B     
 -0.0614641638       1 (B1) A      1 (B2) B    ->    4 (A1) B      4 (A1) A     
 -0.0614641638       1 (B2) A      1 (B1) B    ->    4 (A1) A      4 (A1) B     
  0.0614641638       1 (B2) A      1 (B1) B    ->    4 (A1) B      4 (A1) A     
  0.0614641638       1 (B1) B      1 (B2) A    ->    4 (A1) A      4 (A1) B     
 -0.0614641638       1 (B1) B      1 (B2) A    ->    4 (A1) B      4 (A1) A     
 -0.0614641638       1 (B2) B      1 (B1) A    ->    4 (A1) A      4 (A1) B     
  0.0614641638       1 (B2) B      1 (B1) A    ->    4 (A1) B      4 (A1) A     
 -0.0484012195       3 (A1) A      1 (B2) B    ->    2 (B1) A      4 (A1) B     
  0.0484012195       3 (A1) A      1 (B2) B    ->    4 (A1) B      2 (B1) A     
  0.0484012195       1 (B2) A      3 (A1) B    ->    4 (A1) A      2 (B1) B     
 -0.0484012195       1 (B2) A      3 (A1) B    ->    2 (B1) B      4 (A1) A     
 -0.0484012195       3 (A1) B      1 (B2) A    ->    4 (A1) A      2 (B1) B     
  0.0484012195       3 (A1) B      1 (B2) A    ->    2 (B1) B      4 (A1) A     
  0.0484012195       1 (B2) B      3 (A1) A    ->    2 (B1) A      4 (A1) B     
 -0.0484012195       1 (B2) B      3 (A1) A    ->    4 (A1) B      2 (B1) A     
 -0.0442449115       2 (A1) A      1 (B2) B    ->    4 (A1) A      2 (B1) B     
  0.0442449115       2 (A1) A      1 (B2) B    ->    2 (B1) B      4 (A1) A     
  0.0442449115       1 (B2) A      2 (A1) B    ->    2 (B1) A      4 (A1) B     
 -0.0442449115       1 (B2) A      2 (A1) B    ->    4 (A1) B      2 (B1) A     
 -0.0442449115       2 (A1) B      1 (B2) A    ->    2 (B1) A      4 (A1) B     
  0.0442449115       2 (A1) B      1 (B2) A    ->    4 (A1) B      2 (B1) A     
  0.0442449115       1 (B2) B      2 (A1) A    ->    4 (A1) A      2 (B1) B     
 -0.0442449115       1 (B2) B      2 (A1) A    ->    2 (B1) B      4 (A1) A     
  0.0394915428       1 (B1) A      1 (B2) B    ->    2 (B1) A      2 (B1) B     
 -0.0394915428       1 (B1) A      1 (B2) B    ->    2 (B1) B      2 (B1) A     
 -0.0394915428       1 (B2) A      1 (B1) B    ->    2 (B1) A      2 (B1) B     
  0.0394915428       1 (B2) A      1 (B1) B    ->    2 (B1) B      2 (B1) A     
  0.0394915428       1 (B1) B      1 (B2) A    ->    2 (B1) A      2 (B1) B     
 -0.0394915428       1 (B1) B      1 (B2) A    ->    2 (B1) B      2 (B1) A     
 -0.0394915428       1 (B2) B      1 (B1) A    ->    2 (B1) A      2 (B1) B     
  0.0394915428       1 (B2) B      1 (B1) A    ->    2 (B1) B      2 (B1) A     
  0.0138597943       2 (A1) A      1 (B2) B    ->    2 (B1) A      4 (A1) B     
 -0.0138597943       2 (A1) A      1 (B2) B    ->    4 (A1) B      2 (B1) A     
 -0.0138597943       1 (B2) A      2 (A1) B    ->    4 (A1) A      2 (B1) B     
  0.0138597943       1 (B2) A      2 (A1) B    ->    2 (B1) B      4 (A1) A     
  0.0138597943       2 (A1) B      1 (B2) A    ->    4 (A1) A      2 (B1) B     
 -0.0138597943       2 (A1) B      1 (B2) A    ->    2 (B1) B      4 (A1) A     
 -0.0138597943       1 (B2) B      2 (A1) A    ->    2 (B1) A      4 (A1) B     
  0.0138597943       1 (B2) B      2 (A1) A    ->    4 (A1) B      2 (B1) A     
  0.0042825810       3 (A1) A      1 (B2) A    ->    4 (A1) A      2 (B1) A     
 -0.0042825810       3 (A1) A      1 (B2) A    ->    2 (B1) A      4 (A1) A     
 -0.0042825810       1 (B2) A      3 (A1) A    ->    4 (A1) A      2 (B1) A     
  0.0042825810       1 (B2) A      3 (A1) A    ->    2 (B1) A      4 (A1) A     
 -0.0042825810       3 (A1) B      1 (B2) B    ->    4 (A1) B      2 (B1) B     
  0.0042825810       3 (A1) B      1 (B2) B    ->    2 (B1) B      4 (A1) B     
  0.0042825810       1 (B2) B      3 (A1) B    ->    4 (A1) B      2 (B1) B     
 -0.0042825810       1 (B2) B      3 (A1) B    ->    2 (B1) B      4 (A1) B     
  0.0000913202       2 (A1) A      1 (B2) A    ->    4 (A1) A      2 (B1) A     
 -0.0000913202       2 (A1) A      1 (B2) A    ->    2 (B1) A      4 (A1) A     
 -0.0000913202       1 (B2) A      2 (A1) A    ->    4 (A1) A      2 (B1) A     
  0.0000913202       1 (B2) A      2 (A1) A    ->    2 (B1) A      4 (A1) A     
 -0.0000913202       2 (A1) B      1 (B2) B    ->    4 (A1) B      2 (B1) B     
  0.0000913202       2 (A1) B      1 (B2) B    ->    2 (B1) B      4 (A1) B     
  0.0000913202       1 (B2) B      2 (A1) B    ->    4 (A1) B      2 (B1) B     
 -0.0000913202       1 (B2) B      2 (A1) B    ->    2 (B1) B      4 (A1) B     

              Summary of significant orbitals:

               Number  Type             Irrep      Energy
               2       Occ  Alpha       2 (A1)     -1.3005
               4       Occ  Alpha       3 (A1)     -0.4602
               3       Occ  Alpha       1 (B1)     -0.6493
               5       Occ  Alpha       1 (B2)     -0.3963
               2       Occ  Beta        2 (A1)     -1.3005
               4       Occ  Beta        3 (A1)     -0.4602
               3       Occ  Beta        1 (B1)     -0.6493
               5       Occ  Beta        1 (B2)     -0.3963
               6       Vir  Alpha       4 (A1)      0.6648
               7       Vir  Alpha       2 (B1)      0.8133
               6       Vir  Beta        4 (A1)      0.6648
               7       Vir  Beta        2 (B1)      0.8133


 EEs and amplitudes of EOMEE has be exported to fchk file
Running a double precision version
      EOM-CCSD/MP2 left amplitudes will be solved using Davidson.
        Amplitudes will be solved using MOM  algorithm.
     Hard-coded thresholds: 
     LinDepThresh=1.00e-15  NormThresh=1.00e-06  ReorthogonThresh=1.00e-02

      Roots     MaxVec    MaxIter   Precond   Conv      Shift    
      1         120       60        1         1.00e-05  0.00e+00  
 ------------------------------------------------------------------------------
      Iter ConvRoots NVecs ResNorm Current eigenvalues (eV)
 ------------------------------------------------------------------------------
      0    0      1     1.23e-04   15.6756   
      1    0      2     1.49e-05   15.6757   
      2    1      3     2.17e-07   15.6756*  

     Davidson procedure converged

 Excited state properties for  EOMEE-CCSD transition 1/A2
 Dipole moment (a.u.): 0.203245 (X 0.000000, Y 0.000000, Z -0.203245)
 R-squared (a.u.): 18.728773 (XX 8.426359, YY 3.951342, ZZ 6.351072)
 Gauge origin (a.u.): (0.000000, 0.000000, 0.000000)
 Angular momentum (a.u.) against gauge origin: 
 (X 0.000000i, Y 0.000000i, Z 0.000000i)
 Traces of the OPDMs: Tr(AA) 5.000000, Tr(BB) 5.000000

        Solving for EOMEE-CCSD B1 triplet states.

Running a double precision version
        EOMEE-CCSD/MP2 right amplitudes will be solved using Davidson.
        Amplitudes will be solved using standard  algorithm.
     Hard-coded thresholds: 
     LinDepThresh=1.00e-15  NormThresh=1.00e-06  ReorthogonThresh=1.00e-02

      Roots     MaxVec    MaxIter   Precond   Conv      Shift    
      1         120       60        1         1.00e-05  0.00e+00  
 ------------------------------------------------------------------------------
      Iter ConvRoots NVecs ResNorm Current eigenvalues (eV)
 ------------------------------------------------------------------------------
      0    0      1     1.75e-02   18.5686   
      1    0      2     2.96e-03   18.1342   
      2    0      3     3.03e-03   17.8619   
      3    0      4     1.73e-04   17.7600   
      4    1      5     7.51e-06   17.7543*  

     Davidson procedure converged

 EOMEE transition 1/B1
 Total energy = -74.33505693 a.u.  Excitation energy = 17.75427451 eV.
 R0^2 = 0.0000  R1^2 = 0.9909  R2^2 = 0.0091  Res^2 = 7.51e-06
 Conv-d = yes

 Amplitude    Transitions between orbitals
 -0.6493274715       3 (A1) A                  ->    2 (B1) A                   
  0.6493274715       3 (A1) B                  ->    2 (B1) B                   
  0.2709905816       1 (B1) A                  ->    4 (A1) A                   
 -0.2709905816       1 (B1) B                  ->    4 (A1) B                   
 -0.0195041565       2 (A1) A                  ->    2 (B1) A                   
  0.0195041565       2 (A1) B                  ->    2 (B1) B                   
 -0.0484688586       3 (A1) A      1 (B1) B    ->    4 (A1) A      4 (A1) B     
  0.0484688586       3 (A1) A      1 (B1) B    ->    4 (A1) B      4 (A1) A     
  0.0484688586       1 (B1) A      3 (A1) B    ->    4 (A1) A      4 (A1) B     
 -0.0484688586       1 (B1) A      3 (A1) B    ->    4 (A1) B      4 (A1) A     
 -0.0484688586       3 (A1) B      1 (B1) A    ->    4 (A1) A      4 (A1) B     
  0.0484688586       3 (A1) B      1 (B1) A    ->    4 (A1) B      4 (A1) A     
  0.0484688586       1 (B1) B      3 (A1) A    ->    4 (A1) A      4 (A1) B     
 -0.0484688586       1 (B1) B      3 (A1) A    ->    4 (A1) B      4 (A1) A     
 -0.0271590871       2 (A1) A      3 (A1) B    ->    4 (A1) A      2 (B1) B     
  0.0271590871       3 (A1) A      2 (A1) B    ->    2 (B1) A      4 (A1) B     
 -0.0271590871       3 (A1) A      2 (A1) B    ->    4 (A1) B      2 (B1) A     
  0.0271590871       2 (A1) A      3 (A1) B    ->    2 (B1) B      4 (A1) A     
  0.0271590871       3 (A1) B      2 (A1) A    ->    4 (A1) A      2 (B1) B     
 -0.0271590871       2 (A1) B      3 (A1) A    ->    2 (B1) A      4 (A1) B     
  0.0271590871       2 (A1) B      3 (A1) A    ->    4 (A1) B      2 (B1) A     
 -0.0271590871       3 (A1) B      2 (A1) A    ->    2 (B1) B      4 (A1) A     
  0.0188373298       1 (B1) A      1 (B1) B    ->    4 (A1) A      2 (B1) B     
 -0.0188373298       1 (B1) A      1 (B1) B    ->    2 (B1) A      4 (A1) B     
  0.0188373298       1 (B1) A      1 (B1) B    ->    4 (A1) B      2 (B1) A     
 -0.0188373298       1 (B1) A      1 (B1) B    ->    2 (B1) B      4 (A1) A     
 -0.0188373298       1 (B1) B      1 (B1) A    ->    4 (A1) A      2 (B1) B     
  0.0188373298       1 (B1) B      1 (B1) A    ->    2 (B1) A      4 (A1) B     
 -0.0188373298       1 (B1) B      1 (B1) A    ->    4 (A1) B      2 (B1) A     
  0.0188373298       1 (B1) B      1 (B1) A    ->    2 (B1) B      4 (A1) A     
 -0.0179262586       3 (A1) A      1 (B1) B    ->    2 (B1) A      2 (B1) B     
  0.0179262586       3 (A1) A      1 (B1) B    ->    2 (B1) B      2 (B1) A     
  0.0179262586       1 (B1) A      3 (A1) B    ->    2 (B1) A      2 (B1) B     
 -0.0179262586       1 (B1) A      3 (A1) B    ->    2 (B1) B      2 (B1) A     
 -0.0179262586       3 (A1) B      1 (B1) A    ->    2 (B1) A      2 (B1) B     
  0.0179262586       3 (A1) B      1 (B1) A    ->    2 (B1) B      2 (B1) A     
  0.0179262586       1 (B1) B      3 (A1) A    ->    2 (B1) A      2 (B1) B     
 -0.0179262586       1 (B1) B      3 (A1) A    ->    2 (B1) B      2 (B1) A     
  0.0176818727       2 (A1) A      1 (B1) B    ->    2 (B1) A      2 (B1) B     
 -0.0176818727       2 (A1) A      1 (B1) B    ->    2 (B1) B      2 (B1) A     
 -0.0176818727       1 (B1) A      2 (A1) B    ->    2 (B1) A      2 (B1) B     
  0.0176818727       1 (B1) A      2 (A1) B    ->    2 (B1) B      2 (B1) A     
  0.0176818727       2 (A1) B      1 (B1) A    ->    2 (B1) A      2 (B1) B     
 -0.0176818727       2 (A1) B      1 (B1) A    ->    2 (B1) B      2 (B1) A     
 -0.0176818727       1 (B1) B      2 (A1) A    ->    2 (B1) A      2 (B1) B     
  0.0176818727       1 (B1) B      2 (A1) A    ->    2 (B1) B      2 (B1) A     
 -0.0150420065       3 (A1) A      3 (A1) B    ->    4 (A1) A      2 (B1) B     
  0.0150420065       3 (A1) A      3 (A1) B    ->    2 (B1) A      4 (A1) B     
 -0.0150420065       3 (A1) A      3 (A1) B    ->    4 (A1) B      2 (B1) A     
  0.0150420065       3 (A1) A      3 (A1) B    ->    2 (B1) B      4 (A1) A     
  0.0150420065       3 (A1) B      3 (A1) A    ->    4 (A1) A      2 (B1) B     
 -0.0150420065       3 (A1) B      3 (A1) A    ->    2 (B1) A      4 (A1) B     
  0.0150420065       3 (A1) B      3 (A1) A    ->    4 (A1) B      2 (B1) A     
 -0.0150420065       3 (A1) B      3 (A1) A    ->    2 (B1) B      4 (A1) A     
  0.0105306353       1 (B2) A      1 (B2) B    ->    4 (A1) A      2 (B1) B     
 -0.0105306353       1 (B2) A      1 (B2) B    ->    2 (B1) A      4 (A1) B     
  0.0105306353       1 (B2) A      1 (B2) B    ->    4 (A1) B      2 (B1) A     
 -0.0105306353       1 (B2) A      1 (B2) B    ->    2 (B1) B      4 (A1) A     
 -0.0105306353       1 (B2) B      1 (B2) A    ->    4 (A1) A      2 (B1) B     
  0.0105306353       1 (B2) B      1 (B2) A    ->    2 (B1) A      4 (A1) B     
 -0.0105306353       1 (B2) B      1 (B2) A    ->    4 (A1) B      2 (B1) A     
  0.0105306353       1 (B2) B      1 (B2) A    ->    2 (B1) B      4 (A1) A     
  0.0097791422       3 (A1) A      2 (A1) B    ->    4 (A1) A      2 (B1) B     
 -0.0097791422       2 (A1) A      3 (A1) B    ->    2 (B1) A      4 (A1) B     
  0.0097791422       2 (A1) A      3 (A1) B    ->    4 (A1) B      2 (B1) A     
 -0.0097791422       3 (A1) A      2 (A1) B    ->    2 (B1) B      4 (A1) A     
 -0.0097791422       2 (A1) B      3 (A1) A    ->    4 (A1) A      2 (B1) B     
  0.0097791422       3 (A1) B      2 (A1) A    ->    2 (B1) A      4 (A1) B     
 -0.0097791422       3 (A1) B      2 (A1) A    ->    4 (A1) B      2 (B1) A     
  0.0097791422       2 (A1) B      3 (A1) A    ->    2 (B1) B      4 (A1) A     
  0.0052323395       2 (A1) A      3 (A1) A    ->    4 (A1) A      2 (B1) A     
 -0.0052323395       3 (A1) A      2 (A1) A    ->    4 (A1) A      2 (B1) A     
 -0.0052323395       2 (A1) A      3 (A1) A    ->    2 (B1) A      4 (A1) A     
  0.0052323395       3 (A1) A      2 (A1) A    ->    2 (B1) A      4 (A1) A     
 -0.0052323395       2 (A1) B      3 (A1) B    ->    4 (A1) B      2 (B1) B     
  0.0052323395       3 (A1) B      2 (A1) B    ->    4 (A1) B      2 (B1) B     
  0.0052323395       2 (A1) B      3 (A1) B    ->    2 (B1) B      4 (A1) B     
 -0.0052323395       3 (A1) B      2 (A1) B    ->    2 (B1) B      4 (A1) B     
 -0.0046551105       2 (A1) A      2 (A1) B    ->    4 (A1) A      2 (B1) B     
  0.0046551105       2 (A1) A      2 (A1) B    ->    2 (B1) A      4 (A1) B     
 -0.0046551105       2 (A1) A      2 (A1) B    ->    4 (A1) B      2 (B1) A     
  0.0046551105       2 (A1) A      2 (A1) B    ->    2 (B1) B      4 (A1) A     
  0.0046551105       2 (A1) B      2 (A1) A    ->    4 (A1) A      2 (B1) B     
 -0.0046551105       2 (A1) B      2 (A1) A    ->    2 (B1) A      4 (A1) B     
  0.0046551105       2 (A1) B      2 (A1) A    ->    4 (A1) B      2 (B1) A     
 -0.0046551105       2 (A1) B      2 (A1) A    ->    2 (B1) B      4 (A1) A     
  0.0000380116       2 (A1) A      1 (B1) B    ->    4 (A1) A      4 (A1) B     
 -0.0000380116       2 (A1) A      1 (B1) B    ->    4 (A1) B      4 (A1) A     
 -0.0000380116       1 (B1) A      2 (A1) B    ->    4 (A1) A      4 (A1) B     
  0.0000380116       1 (B1) A      2 (A1) B    ->    4 (A1) B      4 (A1) A     
  0.0000380116       2 (A1) B      1 (B1) A    ->    4 (A1) A      4 (A1) B     
 -0.0000380116       2 (A1) B      1 (B1) A    ->    4 (A1) B      4 (A1) A     
 -0.0000380116       1 (B1) B      2 (A1) A    ->    4 (A1) A      4 (A1) B     
  0.0000380116       1 (B1) B      2 (A1) A    ->    4 (A1) B      4 (A1) A     

              Summary of significant orbitals:

               Number  Type             Irrep      Energy
               2       Occ  Alpha       2 (A1)     -1.3005
               4       Occ  Alpha       3 (A1)     -0.4602
               3       Occ  Alpha       1 (B1)     -0.6493
               5       Occ  Alpha       1 (B2)     -0.3963
               2       Occ  Beta        2 (A1)     -1.3005
               4       Occ  Beta        3 (A1)     -0.4602
               3       Occ  Beta        1 (B1)     -0.6493
               5       Occ  Beta        1 (B2)     -0.3963
               6       Vir  Alpha       4 (A1)      0.6648
               7       Vir  Alpha       2 (B1)      0.8133
               6       Vir  Beta        4 (A1)      0.6648
               7       Vir  Beta        2 (B1)      0.8133


 EEs and amplitudes of EOMEE has be exported to fchk file
Running a double precision version
      EOM-CCSD/MP2 left amplitudes will be solved using Davidson.
        Amplitudes will be solved using MOM  algorithm.
     Hard-coded thresholds: 
     LinDepThresh=1.00e-15  NormThresh=1.00e-06  ReorthogonThresh=1.00e-02

      Roots     MaxVec    MaxIter   Precond   Conv      Shift    
      1         120       60        1         1.00e-05  0.00e+00  
 ------------------------------------------------------------------------------
      Iter ConvRoots NVecs ResNorm Current eigenvalues (eV)
 ------------------------------------------------------------------------------
      0    0      1     1.09e-04   17.7543   
      1    0      2     2.11e-05   17.7539   
      2    1      3     1.39e-06   17.7538*  

     Davidson procedure converged

 Excited state properties for  EOMEE-CCSD transition 1/B1
 Dipole moment (a.u.): 0.026963 (X 0.000000, Y 0.000000, Z -0.026963)
 R-squared (a.u.): 18.431534 (XX 8.182727, YY 4.531962, ZZ 5.716846)
 Gauge origin (a.u.): (0.000000, 0.000000, 0.000000)
 Angular momentum (a.u.) against gauge origin: 
 (X 0.000000i, Y 0.000000i, Z 0.000000i)
 Traces of the OPDMs: Tr(AA) 5.000000, Tr(BB) 5.000000

        Solving for EOMEE-CCSD B2 triplet states.

Running a double precision version
        EOMEE-CCSD/MP2 right amplitudes will be solved using Davidson.
        Amplitudes will be solved using standard  algorithm.
     Hard-coded thresholds: 
     LinDepThresh=1.00e-15  NormThresh=1.00e-06  ReorthogonThresh=1.00e-02

      Roots     MaxVec    MaxIter   Precond   Conv      Shift    
      1         120       60        1         1.00e-05  0.00e+00  
 ------------------------------------------------------------------------------
      Iter ConvRoots NVecs ResNorm Current eigenvalues (eV)
 ------------------------------------------------------------------------------
      0    0      1     3.40e-02   13.3301   
      1    0      2     3.75e-04   12.4710   
      2    1      3     7.07e-06   12.4668*  

     Davidson procedure converged

 EOMEE transition 1/B2
 Total energy = -74.52936838 a.u.  Excitation energy = 12.46679081 eV.
 R0^2 = 0.0000  R1^2 = 0.9720  R2^2 = 0.0280  Res^2 = 7.07e-06
 Conv-d = yes

 Amplitude    Transitions between orbitals
 -0.6971404331       1 (B2) A                  ->    4 (A1) A                   
  0.6971404331       1 (B2) B                  ->    4 (A1) B                   
  0.0915447860       1 (B1) A      1 (B2) B    ->    2 (B1) A      4 (A1) B     
 -0.0915447860       1 (B1) A      1 (B2) B    ->    4 (A1) B      2 (B1) A     
 -0.0915447860       1 (B2) A      1 (B1) B    ->    4 (A1) A      2 (B1) B     
  0.0915447860       1 (B2) A      1 (B1) B    ->    2 (B1) B      4 (A1) A     
  0.0915447860       1 (B1) B      1 (B2) A    ->    4 (A1) A      2 (B1) B     
 -0.0915447860       1 (B1) B      1 (B2) A    ->    2 (B1) B      4 (A1) A     
 -0.0915447860       1 (B2) B      1 (B1) A    ->    2 (B1) A      4 (A1) B     
  0.0915447860       1 (B2) B      1 (B1) A    ->    4 (A1) B      2 (B1) A     
 -0.0450806329       3 (A1) A      1 (B2) B    ->    2 (B1) A      2 (B1) B     
  0.0450806329       3 (A1) A      1 (B2) B    ->    2 (B1) B      2 (B1) A     
  0.0450806329       1 (B2) A      3 (A1) B    ->    2 (B1) A      2 (B1) B     
 -0.0450806329       1 (B2) A      3 (A1) B    ->    2 (B1) B      2 (B1) A     
 -0.0450806329       3 (A1) B      1 (B2) A    ->    2 (B1) A      2 (B1) B     
  0.0450806329       3 (A1) B      1 (B2) A    ->    2 (B1) B      2 (B1) A     
  0.0450806329       1 (B2) B      3 (A1) A    ->    2 (B1) A      2 (B1) B     
 -0.0450806329       1 (B2) B      3 (A1) A    ->    2 (B1) B      2 (B1) A     
 -0.0445314125       3 (A1) A      1 (B2) B    ->    4 (A1) A      4 (A1) B     
  0.0445314125       3 (A1) A      1 (B2) B    ->    4 (A1) B      4 (A1) A     
  0.0445314125       1 (B2) A      3 (A1) B    ->    4 (A1) A      4 (A1) B     
 -0.0445314125       1 (B2) A      3 (A1) B    ->    4 (A1) B      4 (A1) A     
 -0.0445314125       3 (A1) B      1 (B2) A    ->    4 (A1) A      4 (A1) B     
  0.0445314125       3 (A1) B      1 (B2) A    ->    4 (A1) B      4 (A1) A     
  0.0445314125       1 (B2) B      3 (A1) A    ->    4 (A1) A      4 (A1) B     
 -0.0445314125       1 (B2) B      3 (A1) A    ->    4 (A1) B      4 (A1) A     
  0.0271963746       1 (B1) A      1 (B2) A    ->    4 (A1) A      2 (B1) A     
 -0.0271963746       1 (B1) A      1 (B2) A    ->    2 (B1) A      4 (A1) A     
 -0.0271963746       1 (B2) A      1 (B1) A    ->    4 (A1) A      2 (B1) A     
  0.0271963746       1 (B2) A      1 (B1) A    ->    2 (B1) A      4 (A1) A     
 -0.0271963746       1 (B1) B      1 (B2) B    ->    4 (A1) B      2 (B1) B     
  0.0271963746       1 (B1) B      1 (B2) B    ->    2 (B1) B      4 (A1) B     
  0.0271963746       1 (B2) B      1 (B1) B    ->    4 (A1) B      2 (B1) B     
 -0.0271963746       1 (B2) B      1 (B1) B    ->    2 (B1) B      4 (A1) B     
  0.0256674551       1 (B1) A      1 (B2) B    ->    4 (A1) A      2 (B1) B     
 -0.0256674551       1 (B1) A      1 (B2) B    ->    2 (B1) B      4 (A1) A     
 -0.0256674551       1 (B2) A      1 (B1) B    ->    2 (B1) A      4 (A1) B     
  0.0256674551       1 (B2) A      1 (B1) B    ->    4 (A1) B      2 (B1) A     
  0.0256674551       1 (B1) B      1 (B2) A    ->    2 (B1) A      4 (A1) B     
 -0.0256674551       1 (B1) B      1 (B2) A    ->    4 (A1) B      2 (B1) A     
 -0.0256674551       1 (B2) B      1 (B1) A    ->    4 (A1) A      2 (B1) B     
  0.0256674551       1 (B2) B      1 (B1) A    ->    2 (B1) B      4 (A1) A     
 -0.0133481811       2 (A1) A      1 (B2) B    ->    2 (B1) A      2 (B1) B     
  0.0133481811       2 (A1) A      1 (B2) B    ->    2 (B1) B      2 (B1) A     
  0.0133481811       1 (B2) A      2 (A1) B    ->    2 (B1) A      2 (B1) B     
 -0.0133481811       1 (B2) A      2 (A1) B    ->    2 (B1) B      2 (B1) A     
 -0.0133481811       2 (A1) B      1 (B2) A    ->    2 (B1) A      2 (B1) B     
  0.0133481811       2 (A1) B      1 (B2) A    ->    2 (B1) B      2 (B1) A     
  0.0133481811       1 (B2) B      2 (A1) A    ->    2 (B1) A      2 (B1) B     
 -0.0133481811       1 (B2) B      2 (A1) A    ->    2 (B1) B      2 (B1) A     
 -0.0047774063       2 (A1) A      1 (B2) B    ->    4 (A1) A      4 (A1) B     
  0.0047774063       2 (A1) A      1 (B2) B    ->    4 (A1) B      4 (A1) A     
  0.0047774063       1 (B2) A      2 (A1) B    ->    4 (A1) A      4 (A1) B     
 -0.0047774063       1 (B2) A      2 (A1) B    ->    4 (A1) B      4 (A1) A     
 -0.0047774063       2 (A1) B      1 (B2) A    ->    4 (A1) A      4 (A1) B     
  0.0047774063       2 (A1) B      1 (B2) A    ->    4 (A1) B      4 (A1) A     
  0.0047774063       1 (B2) B      2 (A1) A    ->    4 (A1) A      4 (A1) B     
 -0.0047774063       1 (B2) B      2 (A1) A    ->    4 (A1) B      4 (A1) A     

              Summary of significant orbitals:

               Number  Type             Irrep      Energy
               2       Occ  Alpha       2 (A1)     -1.3005
               4       Occ  Alpha       3 (A1)     -0.4602
               3       Occ  Alpha       1 (B1)     -0.6493
               5       Occ  Alpha       1 (B2)     -0.3963
               2       Occ  Beta        2 (A1)     -1.3005
               4       Occ  Beta        3 (A1)     -0.4602
               3       Occ  Beta        1 (B1)     -0.6493
               5       Occ  Beta        1 (B2)     -0.3963
               6       Vir  Alpha       4 (A1)      0.6648
               7       Vir  Alpha       2 (B1)      0.8133
               6       Vir  Beta        4 (A1)      0.6648
               7       Vir  Beta        2 (B1)      0.8133


 EEs and amplitudes of EOMEE has be exported to fchk file
Running a double precision version
      EOM-CCSD/MP2 left amplitudes will be solved using Davidson.
        Amplitudes will be solved using MOM  algorithm.
     Hard-coded thresholds: 
     LinDepThresh=1.00e-15  NormThresh=1.00e-06  ReorthogonThresh=1.00e-02

      Roots     MaxVec    MaxIter   Precond   Conv      Shift    
      1         120       60        1         1.00e-05  0.00e+00  
 ------------------------------------------------------------------------------
      Iter ConvRoots NVecs ResNorm Current eigenvalues (eV)
 ------------------------------------------------------------------------------
      0    0      1     1.52e-04   12.4668   
      1    1      2     4.27e-06   12.4670*  

     Davidson procedure converged

 Excited state properties for  EOMEE-CCSD transition 1/B2
 Dipole moment (a.u.): 0.002756 (X 0.000000, Y 0.000000, Z 0.002756)
 R-squared (a.u.): 19.223917 (XX 8.467727, YY 4.142447, ZZ 6.613743)
 Gauge origin (a.u.): (0.000000, 0.000000, 0.000000)
 Angular momentum (a.u.) against gauge origin: 
 (X 0.000000i, Y 0.000000i, Z 0.000000i)
 Traces of the OPDMs: Tr(AA) 5.000000, Tr(BB) 5.000000

 EOMEE-CCSD calculation:   CPU 7.21 s  wall 2.32 s

 Total ccman2 time:   CPU 11.64 s  wall 3.48 s


 --------------------------------------------------------------
             Orbital Energies (a.u.) and Symmetries
 --------------------------------------------------------------

 Alpha MOs, Restricted
 -- Occupied --                  
-20.236  -1.300  -0.649  -0.460  -0.396
  1 A1    2 A1    1 B1    3 A1    1 B2                                         
 -- Virtual --                   
  0.665   0.813
  4 A1    2 B1                                                                 

 Beta MOs, Restricted
 -- Occupied --                  
-20.236  -1.300  -0.649  -0.460  -0.396
  1 A1    2 A1    1 B1    3 A1    1 B2                                         
 -- Virtual --                   
  0.665   0.813
  4 A1    2 B1                                                                 
 --------------------------------------------------------------

          Ground-State Mulliken Net Atomic Charges

     Atom                 Charge (a.u.)
  ----------------------------------------
      1 O                    -0.396917
      2 H                     0.198458
      3 H                     0.198458
  ----------------------------------------
  Sum of atomic charges =     0.000000

 -----------------------------------------------------------------
                    Cartesian Multipole Moments
 -----------------------------------------------------------------
    Charge (ESU x 10^10)
                 0.0000
    Dipole Moment (Debye)
         X       0.0000      Y      -0.0000      Z      -1.7094
       Tot       1.7094
    Quadrupole Moments (Debye-Ang)
        XX      -4.4958     XY       0.0000     YY      -6.0542
        XZ      -0.0000     YZ      -0.0000     ZZ      -5.4313
    Octopole Moments (Debye-Ang^2)
       XXX       0.0000    XXY      -0.0000    XYY       0.0000
       YYY      -0.0000    XXZ      -0.4339    XYZ      -0.0000
       YYZ      -0.0163    XZZ       0.0000    YZZ      -0.0000
       ZZZ      -0.1966
    Hexadecapole Moments (Debye-Ang^3)
      XXXX      -6.1958   XXXY      -0.0000   XXYY      -1.6790
      XYYY      -0.0000   YYYY      -3.1947   XXXZ      -0.0000
      XXYZ      -0.0000   XYYZ      -0.0000   YYYZ      -0.0000
      XXZZ      -1.6475   XYZZ      -0.0000   YYZZ      -1.3360
      XZZZ      -0.0000   YZZZ      -0.0000   ZZZZ      -4.6550
 -----------------------------------------------------------------
 Total job time:  7.71s(wall), 13.48s(cpu) 
 Mon Sep  5 11:53:11 2022

        *************************************************************
        *                                                           *
        *  Thank you very much for using Q-Chem.  Have a nice day.  *
        *                                                           *
        *************************************************************


