Jobname.Temp
SP        R                             6-31G               
Number of atoms                            I                2
Charge                                     I                0
Multiplicity                               I                1
Number of electrons                        I                2
Number of alpha electrons                  I                1
Number of beta electrons                   I                1
Atomic numbers                             I   N=           2
           1           1
Current cartesian coordinates              R   N=           6
  0.00000000E+00  0.00000000E+00 -4.72431531E-01  0.00000000E+00  0.00000000E+00
  4.72431531E-01
Nuclear charges                            R   N=           2
  1.00000000E+00  1.00000000E+00
Number of basis functions                  I                4
Number of contracted shells                I                4
Number of primitive shells                 I                8
Highest angular momentum                   I                0
Largest degree of contraction              I                3
Shell types                                I   N=           4
           0           0           0           0
Number of primitives per shell             I   N=           4
           3           1           3           1
Shell to atom map                          I   N=           4
           1           1           2           2
Primitive exponents                        R   N=           8
  1.87311370E+01  2.82539370E+00  6.40121700E-01  1.61277800E-01  1.87311370E+01
  2.82539370E+00  6.40121700E-01  1.61277800E-01
Contraction coefficients                   R   N=           8
  3.34945995E-02  2.34726947E-01  8.13757318E-01  1.00000000E+00  3.34945995E-02
  2.34726947E-01  8.13757318E-01  1.00000000E+00
Coordinates of each shell                  R   N=          12
  0.00000000E+00  0.00000000E+00 -4.72431531E-01  0.00000000E+00  0.00000000E+00
 -4.72431531E-01  0.00000000E+00  0.00000000E+00  4.72431531E-01  0.00000000E+00
  0.00000000E+00  4.72431531E-01
Overlap Matrix                             R   N=          10
  1.00000000E+00  6.58292049E-01  1.00000000E+00  6.84829248E-01  5.85376494E-01
  1.00000000E+00  5.85376494E-01  9.30538633E-01  6.58292049E-01  1.00000000E+00
Core Hamiltonian Matrix                    R   N=          10
 -1.22076663E+00 -1.03447070E+00 -9.83240878E-01 -1.22177384E+00 -9.66648704E-01
 -1.22076663E+00 -9.66648704E-01 -9.50352166E-01 -1.03447070E+00 -9.83240878E-01
Orbital Coefficients CCMAN2 Alpha          R   N=          16
 -3.67130376E-01 -2.07677753E-01 -3.67130376E-01 -2.07677753E-01 -7.48400926E-02
 -2.60080458E+00  7.48400926E-02  2.60080458E+00  6.56545116E-01 -6.71333990E-01
  6.56545116E-01 -6.71333990E-01 -1.44557934E+00  1.65618073E+00  1.44557934E+00
 -1.65618073E+00
Orbital Coefficients CCMAN2 Beta           R   N=          16
 -7.48400926E-02 -2.60080458E+00  7.48400926E-02  2.60080458E+00  6.56545116E-01
 -6.71333990E-01  6.56545116E-01 -6.71333990E-01 -1.44557934E+00  1.65618073E+00
  1.44557934E+00 -1.65618073E+00 -3.67130376E-01 -2.07677753E-01 -3.67130376E-01
 -2.07677753E-01
EOMEE transition A Excitation Energies     R   N=           3
  6.46522651E-01  1.02276573E+00  1.46643220E+00
Number of Active Occ                       I                2
Number of Active Vir                       I                6
Alpha Amplitudes                           R   N=           4
  6.95626169E-01  6.95626169E-01 -6.97739088E-01 -6.97739088E-01
Alpha J Indexes                            I   N=           4
           0           2           4           4
Alpha I Indexes                            I   N=           4
           0           9           1          10
EOMEE transition A Excitation Energies     R   N=           3
  5.41379606E-01  8.14969456E-01  1.64006159E+00
Number of Active Occ                       I                2
Number of Active Vir                       I                6
Alpha Amplitudes                           R   N=           4
 -6.98004575E-01  6.98004575E-01  7.06741109E-01 -7.06741109E-01
Alpha J Indexes                            I   N=           4
           0           2           4           4
Alpha I Indexes                            I   N=           4
           0           9           1          10
Number of independent functions            I                4
Alpha MO coefficients                      R   N=          16
 -3.67130376E-01 -2.07677753E-01 -3.67130376E-01 -2.07677753E-01 -7.48400926E-02
 -2.60080458E+00  7.48400926E-02  2.60080458E+00  6.56545116E-01 -6.71333990E-01
  6.56545116E-01 -6.71333990E-01 -1.44557934E+00  1.65618073E+00  1.44557934E+00
 -1.65618073E+00
Alpha Orbital Energies                     R   N=           4
 -6.80853189E-01  2.97636243E-01  6.70158577E-01  1.85226328E+00
Total SCF Density                          R   N=          10
  2.81455896E-01  1.55006286E-01  9.46908392E-02  2.58127653E-01  1.41675422E-01
  2.81455896E-01  1.41675422E-01  8.28919512E-02  1.55006286E-01  9.46908392E-02
Pure Switching                             I                1
Dipole_Data                                R   N=           3
  0.00000000E+00  0.00000000E+00  1.54749533E-15
Quadrupole_Data                            R   N=           6
 -1.66711539E+00  0.00000000E+00 -1.66711539E+00  0.00000000E+00  0.00000000E+00
 -1.46661014E+00
Octapole_Data                              R   N=          10
  0.00000000E+00  0.00000000E+00  0.00000000E+00  0.00000000E+00  3.65314600E-16
  0.00000000E+00  3.65314600E-16  0.00000000E+00  0.00000000E+00  1.20380144E-15
Hexadecapole_Data                          R   N=          15
 -1.33906833E+00  0.00000000E+00 -4.46356111E-01  0.00000000E+00 -1.33906833E+00
  0.00000000E+00  0.00000000E+00  0.00000000E+00  0.00000000E+00 -5.11278865E-01
  0.00000000E+00 -5.11278865E-01  0.00000000E+00  0.00000000E+00 -1.71430372E+00
