                  Welcome to Q-Chem
     A Quantum Leap Into The Future Of Chemistry


 Q-Chem 5.4 (devel), Q-Chem, Inc., Pleasanton, CA (2021)

 E. Epifanovsky,  A. T. B. Gilbert,  Xintian Feng,  Joonho Lee,  Yuezhi Mao,  
 N. Mardirossian,  P. Pokhilko,  A. White,  M. Wormit,  M. P. Coons,  
 A. L. Dempwolff,  Zhengting Gan,  D. Hait,  P. R. Horn,  L. D. Jacobson,  
 I. Kaliman,  J. Kussmann,  A. W. Lange,  Ka Un Lao,  D. S. Levine,  Jie Liu,  
 S. C. McKenzie,  A. F. Morrison,  K. Nanda,  F. Plasser,  D. R. Rehn,  
 M. L. Vidal,  Zhi-Qiang You,  Ying Zhu,  B. Alam,  B. Albrecht,  
 A. Aldossary,  E. Alguire,  J. H. Andersen,  D. Barton,  K. Begam,  A. Behn,  
 Y. A. Bernard,  E. J. Berquist,  H. Burton,  A. Carreras,  K. Carter-Fenk,  
 R. Chakraborty,  A. D. Chien,  K. D. Closser,  V. Cofer-Shabica,  
 S. Dasgupta,  Jia Deng,  M. de Wergifosse,  M. Diedenhofen,  Hainam Do,  
 S. Ehlert,  Po-Tung Fang,  S. Fatehi,  Qingguo Feng,  T. Friedhoff,  
 J. Gayvert,  Qinghui Ge,  G. Gidofalvi,  M. Goldey,  J. Gomes,  
 C. Gonzalez-Espinoza,  S. Gulania,  A. Gunina,  M. W. D. Hanson-Heine,  
 P. H. P. Harbach,  A. W. Hauser,  M. F. Herbst,  M. Hernandez Vera,  
 M. Hodecker,  Z. C. Holden,  S. Houck,  Xunkun Huang,  Kerwin Hui,  
 B. C. Huynh,  M. Ivanov,  Hyunjun Ji,  Hanjie Jiang,  B. Kaduk,  S. Kaehler,  
 K. Khistyaev,  Jaehoon Kim,  P. Klunzinger,  Z. Koczor-Benda,  
 Joong Hoon Koh,  D. Kosenkov,  L. Koulias,  T. Kowalczyk,  C. M. Krauter,  
 K. Kue,  A. Kunitsa,  T. Kus,  A. Landau,  K. V. Lawler,  D. Lefrancois,  
 S. Lehtola,  Rain Li,  Yi-Pei Li,  Jiashu Liang,  M. Liebenthal,  
 Hung-Hsuan Lin,  You-Sheng Lin,  Fenglai Liu,  Kuan-Yu Liu,  
 M. Loipersberger,  A. Luenser,  A. Manjanath,  P. Manohar,  E. Mansoor,  
 S. F. Manzer,  Shan-Ping Mao,  A. V. Marenich,  T. Markovich,  S. Mason,  
 S. A. Maurer,  P. F. McLaughlin,  M. F. S. J. Menger,  J.-M. Mewes,  
 S. A. Mewes,  P. Morgante,  J. W. Mullinax,  K. J. Oosterbaan,  G. Paran,  
 Alexander C. Paul,  Suranjan K. Paul,  F. Pavosevic,  Zheng Pei,  S. Prager,  
 E. I. Proynov,  E. Ramos,  B. Rana,  A. E. Rask,  A. Rettig,  R. M. Richard,  
 F. Rob,  E. Rossomme,  T. Scheele,  M. Scheurer,  M. Schneider,  
 N. Sergueev,  S. M. Sharada,  W. Skomorowski,  D. W. Small,  C. J. Stein,  
 Yu-Chuan Su,  E. J. Sundstrom,  Zhen Tao,  J. Thirman,  T. Tsuchimochi,  
 N. M. Tubman,  S. P. Veccham,  O. Vydrov,  J. Wenzel,  J. Witte,  A. Yamada,  
 Kun Yao,  S. Yeganeh,  S. R. Yost,  A. Zech,  Igor Ying Zhang,  Xing Zhang,  
 Yu Zhang,  D. Zuev,  A. Aspuru-Guzik,  A. T. Bell,  N. A. Besley,  
 K. B. Bravaya,  B. R. Brooks,  D. Casanova,  Jeng-Da Chai,  S. Coriani,  
 C. J. Cramer,  A. E. DePrince, III,  R. A. DiStasio Jr.,  A. Dreuw,  
 B. D. Dunietz,  T. R. Furlani,  W. A. Goddard III,  S. Grimme,  
 S. Hammes-Schiffer,  T. Head-Gordon,  W. J. Hehre,  Chao-Ping Hsu,  
 T.-C. Jagau,  Yousung Jung,  A. Klamt,  Jing Kong,  D. S. Lambrecht,  
 WanZhen Liang,  N. J. Mayhall,  C. W. McCurdy,  J. B. Neaton,  
 C. Ochsenfeld,  J. A. Parkhill,  R. Peverati,  V. A. Rassolov,  Yihan Shao,  
 L. V. Slipchenko,  T. Stauch,  R. P. Steele,  J. E. Subotnik,  
 A. J. W. Thom,  A. Tkatchenko,  D. G. Truhlar,  T. Van Voorhis,  
 T. A. Wesolowski,  K. B. Whaley,  H. L. Woodcock III,  P. M. Zimmerman,  
 S. Faraji,  P. M. W. Gill,  M. Head-Gordon,  J. M. Herbert,  A. I. Krylov

 Additional authors for Version 5.4.1: 
 S. Kotaru,  Shaozhi Li,  Xiangyuan Li,  F. Matz,  A. Molle,  Haisheng Ren,  
 Yingli Su,  Hung-Yi Tsai,  C. Utku,  Fang Wang

 Contributors to earlier versions of Q-Chem not listed above: 
 R. D. Adamson,  B. Austin,  R. Baer,  J. Baker,  G. J. O. Beran,  
 K. Brandhorst,  S. T. Brown,  E. F. C. Byrd,  A. K. Chakraborty,  
 G. K. L. Chan,  Chun-Min Chang,  Yunqing Chen,  C.-L. Cheng,  
 Siu Hung Chien,  D. M. Chipman,  D. L. Crittenden,  H. Dachsel,  
 R. J. Doerksen,  A. D. Dutoi,  R. G. Edgar,  J. Fosso-Tande,  
 L. Fusti-Molnar,  D. Ghosh,  A. Ghysels,  A. Golubeva-Zadorozhnaya,  
 J. Gonthier,  M. S. Gordon,  S. R. Gwaltney,  G. Hawkins,  J. E. Herr,  
 A. Heyden,  S. Hirata,  E. G. Hohenstein,  G. Kedziora,  F. J. Keil,  
 C. Kelley,  Jihan Kim,  R. A. King,  R. Z. Khaliullin,  P. P. Korambath,  
 W. Kurlancheek,  A. Laurent,  A. M. Lee,  M. S. Lee,  S. V. Levchenko,  
 Ching Yeh Lin,  D. Liotard,  E. Livshits,  R. C. Lochan,  I. Lotan,  
 L. A. Martinez-Martinez,  P. E. Maslen,  N. Nair,  D. P. O'Neill,  
 D. Neuhauser,  E. Neuscamman,  C. M. Oana,  R. Olivares-Amaya,  R. Olson,  
 T. M. Perrine,  B. Peters,  P. A. Pieniazek,  A. Prociuk,  Y. M. Rhee,  
 J. Ritchie,  M. A. Rohrdanz,  E. Rosta,  N. J. Russ,  H. F. Schaefer III,  
 M. W. Schmidt,  N. E. Schultz,  S. Sharma,  N. Shenvi,  C. D. Sherrill,  
 A. C. Simmonett,  A. Sodt,  T. Stein,  D. Stuck,  K. S. Thanthiriwatte,  
 V. Vanovschi,  L. Vogt,  Tao Wang,  A. Warshel,  M. A. Watson,  
 C. F. Williams,  Q. Wu,  X. Xu,  Jun Yang,  W. Zhang,  Yan Zhao

 Please cite Q-Chem as follows:
 Y. Shao et al., Mol. Phys. 113, 184-215 (2015)
 DOI: 10.1080/00268976.2014.952696

 Q-Chem 5.4.1 for Intel X86 EM64T Linux

 Parts of Q-Chem use Armadillo 9.900.5 (Nocturnal Misbehaviour).
 http://arma.sourceforge.net/

 Q-Chem begins on Thu Aug 11 11:19:25 2022  

orc23
 Host: 0

     Scratch files written to /scratch/yongbin/qchem8786//
 Processing $rem in /home/users/yongbin/software/yongbin_quantum/config/preferences:
 Processing $rem in /home/users/yongbin/.qchemrc:
 Core orbitals will be frozen

 Checking the input file for inconsistencies... 	...done.

--------------------------------------------------------------
User input:
--------------------------------------------------------------
$comment
Hydrogen molecule
$end

$molecule
0 1
H 0.0 0.0 0.0
H 0.0 0.0 0.5
$end

$rem
   print_qis = true
   BASIS                = 6-31g 
   SYMMETRY             = false
   CC_SYMMETRY          = false
   METHOD               = eom-ccsd
   EE_SINGLETS          = [3]  ! Compute two EOM-EE singlet excited states
   EE_TRIPLETS          = [3]  ! Compute two EOM-EE triplet excited states
   CC_REF_PROP          = true ! Compute ground state properties
   CC_EOM_PROP          = true ! Compute excited state properties
!   CC_OSFNO             = true
   GUI                  = 2
$end
--------------------------------------------------------------
 ----------------------------------------------------------------
             Standard Nuclear Orientation (Angstroms)
    I     Atom           X                Y                Z
 ----------------------------------------------------------------
    1      H       0.0000000000     0.0000000000    -0.2500000000
    2      H       0.0000000000     0.0000000000     0.2500000000
 ----------------------------------------------------------------
 Molecular Point Group                 D*h   NOp =***
 Largest Abelian Subgroup              D2h   NOp =  1
 Nuclear Repulsion Energy =           1.05835442 hartrees
 There are        1 alpha and        1 beta electrons
 Requested basis set is 6-31G
 There are 4 shells and 4 basis functions
 Total memory of 2000 MB is distributed as follows: 
   MEM_STATIC is set to 192 MB
   QALLOC/CCMAN JOB total memory use is  1808 MB
 Warning: actual memory use might exceed 2000 MB

 Total QAlloc Memory Limit   2000 MB
 Mega-Array Size       188 MB
 MEM_STATIC part       192 MB

                       Distance Matrix (Angstroms)
             H (  1)
   H (  2)  0.500000

 A cutoff of  1.0D-14 yielded     10 shell pairs
 There are        10 function pairs
 Smallest overlap matrix eigenvalue = 4.95E-02

 Scale SEOQF with 1.000000e+00/1.000000e+00/1.000000e+00

 Standard Electronic Orientation quadrupole field applied
 Nucleus-field energy     =    -0.0000000001 hartrees
 Guess from superposition of atomic densities
 Warning:  Energy on first SCF cycle will be non-variational
 SAD guess density has 2.000000 electrons

 -----------------------------------------------------------------------
  General SCF calculation program by
  Eric Jon Sundstrom, Paul Horn, Yuezhi Mao, Dmitri Zuev, Alec White,
  David Stuck, Shaama M.S., Shane Yost, Joonho Lee, David Small,
  Daniel Levine, Susi Lehtola, Hugh Burton, Evgeny Epifanovsky,
  Bang C. Huynh
 -----------------------------------------------------------------------
 Hartree-Fock
 using 12 threads for integral computing
 -------------------------------------------------------
 OpenMP Integral computing Module                
 Release: version 1.0, May 2013, Q-Chem Inc. Pittsburgh 
 -------------------------------------------------------
 A restricted SCF calculation will be
 performed using DIIS
 SCF converges when DIIS error is below 1.0e-08
 ---------------------------------------
  Cycle       Energy         DIIS error
 ---------------------------------------
    1      -0.7840377166      1.59e-01  
    2      -1.0560345081      2.40e-02  
    3      -1.0580247975      6.70e-05  
    4      -1.0580248131      1.84e-07  
    5      -1.0580248131      5.12e-10  Convergence criterion met
 ---------------------------------------
 SCF time:   CPU 0.54s  wall 1.00s 
 SCF   energy in the final basis set =       -1.0580248131
 Total energy in the final basis set =       -1.0580248131


 ------------------------------------------------------------------------------

   CCMAN2: suite of methods based on coupled cluster
           and equation of motion theories.

   Components:
   * libvmm-1.3-trunk
     by Evgeny Epifanovsky, Ilya Kaliman.
   * libtensor-2.5-trunk
     by Evgeny Epifanovsky, Michael Wormit, Dmitry Zuev, Sam Manzer, 
        Ilya Kaliman.
   * libcc-2.5-trunk
     by Evgeny Epifanovsky, Arik Landau, Tomasz Kus, Kirill Khistyaev, 
        Dmitry Zuev, Prashant Manohar, Xintian Feng, Anna Krylov, 
        Matthew Goldey, Alec White, Thomas Jagau, Kaushik Nanda, 
        Anastasia Gunina, Alexander Kunitsa, Joonho Lee.

   CCMAN original authors:
   Anna I. Krylov, C. David Sherrill, Steven R. Gwaltney,
   Edward F. C. Byrd (2000)
   Sergey V. Levchenko, Lyudmila V. Slipchenko, Tao Wang,
   Ana-Maria C. Cristian (2003)
   Piotr A. Pieniazek, C. Melania Oana, Evgeny Epifanovsky (2007)
   Prashant Manohar (2009)

 ------------------------------------------------------------------------------


 Allocating and initializing 1808MB of RAM...
 Calculation will run on 12 cores.


 Occupation and symmetry of molecular orbitals

 Point group: C1 (1 irreducible representation).

                           A     All 
 -------------------------------------
 All molecular orbitals:
  - Alpha                  4     4   
  - Beta                   4     4   
 -------------------------------------
 Alpha orbitals:
  - Frozen occupied        0     0   
  - Active occupied        1     1   
  - Active virtual         3     3   
  - Frozen virtual         0     0   
 -------------------------------------
 Beta orbitals:
  - Frozen occupied        0     0   
  - Active occupied        1     1   
  - Active virtual         3     3   
  - Frozen virtual         0     0   
 -------------------------------------

 Import integrals:   CPU 0.00 s  wall 0.00 s

 Import integrals:   CPU 0.08 s  wall 0.04 s

 Run QIS:   CPU 0.00 s  wall 0.01 s

 MP2 amplitudes:   CPU 0.00 s  wall 0.00 s

Running a double precision version
           CCSD T amplitudes will be solved using DIIS.

           Start     Size      MaxIter   EConv     TConv     
           3         7         100       1.00e-06  1.00e-04  
 ------------------------------------------------------------------------------
           Energy (a.u.)   Ediff      Tdiff       Comment
 ------------------------------------------------------------------------------
            -1.07265246                           
     1      -1.07645720   3.80e-03   9.77e-02     
     2      -1.07747074   1.01e-03   2.60e-02     
     3      -1.07775034   2.80e-04   7.30e-03     
     4      -1.07786380   1.13e-04   2.98e-03     Switched to DIIS steps.
     5      -1.07786391   1.12e-07   1.80e-04     
     6      -1.07786390   9.14e-09   5.66e-06     
 ------------------------------------------------------------------------------
            -1.07786390                           CCSD T converged.

End of double precision
 SCF energy                 = -1.05802481
 MP2 energy                 = -1.07265246
 CCSD correlation energy    = -0.01983909
 CCSD total energy          = -1.07786390

 CCSD  T1^2 = 0.0000  T2^2 = 0.0085  Leading amplitudes:

 Amplitude    Orbitals with energies
 0.0004467776       1 (A) A                   ->    3 (A) A                    
                   -0.6809                          0.6702                     
 0.0004467776       1 (A) B                   ->    3 (A) B                    
                   -0.6809                          0.6702                     

 Amplitude    Orbitals with energies
 -0.0581682426       1 (A) A       1 (A) B     ->    3 (A) A       3 (A) B      
                    -0.6809       -0.6809            0.6702        0.6702       
  0.0581682426       1 (A) A       1 (A) B     ->    3 (A) B       3 (A) A      
                    -0.6809       -0.6809            0.6702        0.6702       
  0.0581682426       1 (A) B       1 (A) A     ->    3 (A) A       3 (A) B      
                    -0.6809       -0.6809            0.6702        0.6702       
 -0.0581682426       1 (A) B       1 (A) A     ->    3 (A) B       3 (A) A      
                    -0.6809       -0.6809            0.6702        0.6702       

 Computing CCSD intermediates for later calculations in double precision
 Finished.

Running a double precision version
           CCSD Lambda amplitudes will be solved using DIIS.
           Start     Size      MaxIter   EConv     LConv     
           3         7         100       1.00e-06  1.00e-04  
 ------------------------------------------------------------------------------
            Enorm      Ldiff       Comment
 ------------------------------------------------------------------------------
     1     1.14e-03   1.13e-03     
     2     3.01e-04   2.99e-04     
     3     8.64e-05   8.28e-05     
     4     5.89e-06   3.32e-05     Switched to DIIS steps.
     5     3.16e-07   1.02e-06     
 ------------------------------------------------------------------------------
                                   CCSD Lambda converged.

 Computing density matrices in double precision...
 Computing density matrices... Done.
 Reference state properties
 Dipole moment (a.u.): 0.000000 (X -0.000000, Y -0.000000, Z 0.000000)
 R-squared (a.u.): 4.015691 (XX 1.239459, YY 1.239459, ZZ 1.536772)
 Gauge origin (a.u.): (0.000000, 0.000000, 0.000000)
 Angular momentum (a.u.) against gauge origin: 
 (X 0.000000i, Y 0.000000i, Z 0.000000i)
 Traces of the OPDMs: Tr(AA) 1.000000, Tr(BB) 1.000000
 Density matrix was written to a file for further analysis.

 CCSD calculation:   CPU 0.81 s  wall 0.47 s

        Solving for EOMEE-CCSD A singlet states.

Running a double precision version
        EOMEE-CCSD/MP2 right amplitudes will be solved using Davidson.
        Amplitudes will be solved using standard  algorithm.
     Hard-coded thresholds: 
     LinDepThresh=1.00e-15  NormThresh=1.00e-06  ReorthogonThresh=1.00e-02

      Roots     MaxVec    MaxIter   Precond   Conv      Shift    
      3         120       60        1         1.00e-05  0.00e+00  
 ------------------------------------------------------------------------------
      Iter ConvRoots NVecs ResNorm Current eigenvalues (eV)
 ------------------------------------------------------------------------------
      0    0      3     3.81e-02   18.5837   28.6242   57.2884   
      1    2      6     3.37e-03   17.5928*  28.0370   46.5053*  
      2    2      7     9.79e-05   17.5928*  27.8369   46.5053*  
      3    2      8     3.41e-06   17.5928*  27.8314   46.5053*  
      4    3      9     2.34e-30   17.5928*  27.8309*  39.9036*  

     Davidson procedure converged

 EOMEE transition 1/A
 Total energy = -0.43134125 a.u.  Excitation energy = 17.59277605 eV.
 R0^2 = 0.0000  R1^2 = 0.9680  R2^2 = 0.0320  Res^2 = 6.73e-31
 Conv-d = yes

 Amplitude    Transitions between orbitals
  0.6956261689       1 (A) A                   ->    2 (A) A                    
  0.6956261689       1 (A) B                   ->    2 (A) B                    
 -0.0092212381       1 (A) A                   ->    4 (A) A                    
 -0.0092212381       1 (A) B                   ->    4 (A) B                    
 -0.1263087560       1 (A) A       1 (A) B     ->    2 (A) A       3 (A) B      
 -0.1263087560       1 (A) A       1 (A) B     ->    3 (A) A       2 (A) B      
  0.1263087560       1 (A) A       1 (A) B     ->    3 (A) B       2 (A) A      
  0.1263087560       1 (A) A       1 (A) B     ->    2 (A) B       3 (A) A      
  0.1263087560       1 (A) B       1 (A) A     ->    2 (A) A       3 (A) B      
  0.1263087560       1 (A) B       1 (A) A     ->    3 (A) A       2 (A) B      
 -0.1263087560       1 (A) B       1 (A) A     ->    2 (A) B       3 (A) A      
 -0.1263087560       1 (A) B       1 (A) A     ->    3 (A) B       2 (A) A      
  0.0080808471       1 (A) A       1 (A) B     ->    3 (A) A       4 (A) B      
  0.0080808471       1 (A) A       1 (A) B     ->    4 (A) A       3 (A) B      
 -0.0080808471       1 (A) A       1 (A) B     ->    4 (A) B       3 (A) A      
 -0.0080808471       1 (A) A       1 (A) B     ->    3 (A) B       4 (A) A      
 -0.0080808471       1 (A) B       1 (A) A     ->    3 (A) A       4 (A) B      
 -0.0080808471       1 (A) B       1 (A) A     ->    4 (A) A       3 (A) B      
  0.0080808471       1 (A) B       1 (A) A     ->    3 (A) B       4 (A) A      
  0.0080808471       1 (A) B       1 (A) A     ->    4 (A) B       3 (A) A      

              Summary of significant orbitals:

               Number  Type             Irrep      Energy
               1       Occ  Alpha       1 (A)     -0.6809
               1       Occ  Beta        1 (A)     -0.6809
               2       Vir  Alpha       2 (A)      0.2976
               3       Vir  Alpha       3 (A)      0.6702
               4       Vir  Alpha       4 (A)      1.8523
               2       Vir  Beta        2 (A)      0.2976
               3       Vir  Beta        3 (A)      0.6702
               4       Vir  Beta        4 (A)      1.8523


 EOMEE transition 2/A
 Total energy = -0.05509817 a.u.  Excitation energy = 27.83087095 eV.
 R0^2 = 0.0001  R1^2 = 0.9737  R2^2 = 0.0263  Res^2 = 4.62e-30
 Conv-d = yes

 Amplitude    Transitions between orbitals
 -0.6977390875       1 (A) A                   ->    3 (A) A                    
 -0.6977390875       1 (A) B                   ->    3 (A) B                    
  0.1289383591       1 (A) A       1 (A) B     ->    3 (A) A       3 (A) B      
 -0.1289383591       1 (A) A       1 (A) B     ->    3 (A) B       3 (A) A      
 -0.1289383591       1 (A) B       1 (A) A     ->    3 (A) A       3 (A) B      
  0.1289383591       1 (A) B       1 (A) A     ->    3 (A) B       3 (A) A      
  0.0776254460       1 (A) A       1 (A) B     ->    2 (A) A       2 (A) B      
 -0.0776254460       1 (A) A       1 (A) B     ->    2 (A) B       2 (A) A      
 -0.0776254460       1 (A) B       1 (A) A     ->    2 (A) A       2 (A) B      
  0.0776254460       1 (A) B       1 (A) A     ->    2 (A) B       2 (A) A      
 -0.0576486877       1 (A) A       1 (A) B     ->    4 (A) A       4 (A) B      
  0.0576486877       1 (A) A       1 (A) B     ->    4 (A) B       4 (A) A      
  0.0576486877       1 (A) B       1 (A) A     ->    4 (A) A       4 (A) B      
 -0.0576486877       1 (A) B       1 (A) A     ->    4 (A) B       4 (A) A      
 -0.0131557959       1 (A) A       1 (A) B     ->    2 (A) A       4 (A) B      
 -0.0131557959       1 (A) A       1 (A) B     ->    4 (A) A       2 (A) B      
  0.0131557959       1 (A) A       1 (A) B     ->    4 (A) B       2 (A) A      
  0.0131557959       1 (A) A       1 (A) B     ->    2 (A) B       4 (A) A      
  0.0131557959       1 (A) B       1 (A) A     ->    2 (A) A       4 (A) B      
  0.0131557959       1 (A) B       1 (A) A     ->    4 (A) A       2 (A) B      
 -0.0131557959       1 (A) B       1 (A) A     ->    2 (A) B       4 (A) A      
 -0.0131557959       1 (A) B       1 (A) A     ->    4 (A) B       2 (A) A      

              Summary of significant orbitals:

               Number  Type             Irrep      Energy
               1       Occ  Alpha       1 (A)     -0.6809
               1       Occ  Beta        1 (A)     -0.6809
               2       Vir  Alpha       2 (A)      0.2976
               3       Vir  Alpha       3 (A)      0.6702
               4       Vir  Alpha       4 (A)      1.8523
               2       Vir  Beta        2 (A)      0.2976
               3       Vir  Beta        3 (A)      0.6702
               4       Vir  Beta        4 (A)      1.8523


 EOMEE transition 3/A
 Total energy = 0.38856831 a.u.  Excitation energy = 39.90364969 eV.
 R0^2 = 0.0017  R1^2 = 0.0035  R2^2 = 0.9965  Res^2 = 1.71e-30
 Conv-d = yes

 Amplitude    Transitions between orbitals
  0.0416250311       1 (A) A                   ->    3 (A) A                    
  0.0416250311       1 (A) B                   ->    3 (A) B                    
  0.9714703301       1 (A) A       1 (A) B     ->    2 (A) A       2 (A) B      
 -0.9714703301       1 (A) A       1 (A) B     ->    2 (A) B       2 (A) A      
 -0.9714703301       1 (A) B       1 (A) A     ->    2 (A) A       2 (A) B      
  0.9714703301       1 (A) B       1 (A) A     ->    2 (A) B       2 (A) A      
  0.1438722834       1 (A) A       1 (A) B     ->    2 (A) A       4 (A) B      
  0.1438722834       1 (A) A       1 (A) B     ->    4 (A) A       2 (A) B      
 -0.1438722834       1 (A) A       1 (A) B     ->    4 (A) B       2 (A) A      
 -0.1438722834       1 (A) A       1 (A) B     ->    2 (A) B       4 (A) A      
 -0.1438722834       1 (A) B       1 (A) A     ->    2 (A) A       4 (A) B      
 -0.1438722834       1 (A) B       1 (A) A     ->    4 (A) A       2 (A) B      
  0.1438722834       1 (A) B       1 (A) A     ->    2 (A) B       4 (A) A      
  0.1438722834       1 (A) B       1 (A) A     ->    4 (A) B       2 (A) A      
 -0.1064112052       1 (A) A       1 (A) B     ->    3 (A) A       3 (A) B      
  0.1064112052       1 (A) A       1 (A) B     ->    3 (A) B       3 (A) A      
  0.1064112052       1 (A) B       1 (A) A     ->    3 (A) A       3 (A) B      
 -0.1064112052       1 (A) B       1 (A) A     ->    3 (A) B       3 (A) A      
 -0.0076353674       1 (A) A       1 (A) B     ->    4 (A) A       4 (A) B      
  0.0076353674       1 (A) A       1 (A) B     ->    4 (A) B       4 (A) A      
  0.0076353674       1 (A) B       1 (A) A     ->    4 (A) A       4 (A) B      
 -0.0076353674       1 (A) B       1 (A) A     ->    4 (A) B       4 (A) A      

              Summary of significant orbitals:

               Number  Type             Irrep      Energy
               1       Occ  Alpha       1 (A)     -0.6809
               1       Occ  Beta        1 (A)     -0.6809
               2       Vir  Alpha       2 (A)      0.2976
               3       Vir  Alpha       3 (A)      0.6702
               4       Vir  Alpha       4 (A)      1.8523
               2       Vir  Beta        2 (A)      0.2976
               3       Vir  Beta        3 (A)      0.6702
               4       Vir  Beta        4 (A)      1.8523


 EEs and amplitudes of EOMEE has be exported to fchk file
Running a double precision version
      EOM-CCSD/MP2 left amplitudes will be solved using Davidson.
        Amplitudes will be solved using MOM  algorithm.
     Hard-coded thresholds: 
     LinDepThresh=1.00e-15  NormThresh=1.00e-06  ReorthogonThresh=1.00e-02

      Roots     MaxVec    MaxIter   Precond   Conv      Shift    
      3         120       60        1         1.00e-05  0.00e+00  
 ------------------------------------------------------------------------------
      Iter ConvRoots NVecs ResNorm Current eigenvalues (eV)
 ------------------------------------------------------------------------------
      0    2      3     8.19e-06   17.5928*  27.8309*  39.9036   
      1    3      4     1.02e-06   17.5928*  27.8309*  39.9036*  

     Davidson procedure converged

 Excited state properties for  EOMEE-CCSD transition 1/A
 Dipole moment (a.u.): 0.000000 (X -0.000000, Y -0.000000, Z 0.000000)
 R-squared (a.u.): 8.987027 (XX 1.904072, YY 1.904072, ZZ 5.178883)
 Gauge origin (a.u.): (0.000000, 0.000000, 0.000000)
 Angular momentum (a.u.) against gauge origin: 
 (X 0.000000i, Y 0.000000i, Z 0.000000i)
 Traces of the OPDMs: Tr(AA) 1.000000, Tr(BB) 1.000000

 Excited state properties for  EOMEE-CCSD transition 2/A
 Dipole moment (a.u.): 0.000000 (X -0.000000, Y -0.000000, Z 0.000000)
 R-squared (a.u.): 6.982687 (XX 2.245113, YY 2.245113, ZZ 2.492462)
 Gauge origin (a.u.): (0.000000, 0.000000, 0.000000)
 Angular momentum (a.u.) against gauge origin: 
 (X 0.000000i, Y 0.000000i, Z 0.000000i)
 Traces of the OPDMs: Tr(AA) 1.000000, Tr(BB) 1.000000

 Excited state properties for  EOMEE-CCSD transition 3/A
 Dipole moment (a.u.): 0.000000 (X -0.000000, Y -0.000000, Z 0.000000)
 R-squared (a.u.): 13.155461 (XX 2.600897, YY 2.600897, ZZ 7.953667)
 Gauge origin (a.u.): (0.000000, 0.000000, 0.000000)
 Angular momentum (a.u.) against gauge origin: 
 (X 0.000000i, Y 0.000000i, Z 0.000000i)
 Traces of the OPDMs: Tr(AA) 1.000000, Tr(BB) 1.000000

        Solving for EOMEE-CCSD A triplet states.

Running a double precision version
        EOMEE-CCSD/MP2 right amplitudes will be solved using Davidson.
        Amplitudes will be solved using standard  algorithm.
     Hard-coded thresholds: 
     LinDepThresh=1.00e-15  NormThresh=1.00e-06  ReorthogonThresh=1.00e-02

      Roots     MaxVec    MaxIter   Precond   Conv      Shift    
      3         120       60        1         1.00e-05  0.00e+00  
 ------------------------------------------------------------------------------
      Iter ConvRoots NVecs ResNorm Current eigenvalues (eV)
 ------------------------------------------------------------------------------
      0    0      3     1.03e-02   15.1643   22.2237   48.9505   
      1    3      6     2.21e-31   14.7317*  22.1764*  44.6283*  

     Davidson procedure converged

 EOMEE transition 1/A
 Total energy = -0.53648429 a.u.  Excitation energy = 14.73168828 eV.
 R0^2 = 0.0000  R1^2 = 0.9864  R2^2 = 0.0136  Res^2 = 1.39e-32
 Conv-d = yes

 Amplitude    Transitions between orbitals
 -0.6980045754       1 (A) A                   ->    2 (A) A                    
  0.6980045754       1 (A) B                   ->    2 (A) B                    
 -0.0774213662       1 (A) A                   ->    4 (A) A                    
  0.0774213662       1 (A) B                   ->    4 (A) B                    
  0.0815064687       1 (A) A       1 (A) B     ->    2 (A) A       3 (A) B      
 -0.0815064687       1 (A) A       1 (A) B     ->    3 (A) A       2 (A) B      
 -0.0815064687       1 (A) A       1 (A) B     ->    3 (A) B       2 (A) A      
  0.0815064687       1 (A) A       1 (A) B     ->    2 (A) B       3 (A) A      
 -0.0815064687       1 (A) B       1 (A) A     ->    2 (A) A       3 (A) B      
  0.0815064687       1 (A) B       1 (A) A     ->    3 (A) A       2 (A) B      
 -0.0815064687       1 (A) B       1 (A) A     ->    2 (A) B       3 (A) A      
  0.0815064687       1 (A) B       1 (A) A     ->    3 (A) B       2 (A) A      
  0.0123385710       1 (A) A       1 (A) B     ->    3 (A) A       4 (A) B      
 -0.0123385710       1 (A) A       1 (A) B     ->    4 (A) A       3 (A) B      
 -0.0123385710       1 (A) A       1 (A) B     ->    4 (A) B       3 (A) A      
  0.0123385710       1 (A) A       1 (A) B     ->    3 (A) B       4 (A) A      
 -0.0123385710       1 (A) B       1 (A) A     ->    3 (A) A       4 (A) B      
  0.0123385710       1 (A) B       1 (A) A     ->    4 (A) A       3 (A) B      
 -0.0123385710       1 (A) B       1 (A) A     ->    3 (A) B       4 (A) A      
  0.0123385710       1 (A) B       1 (A) A     ->    4 (A) B       3 (A) A      

              Summary of significant orbitals:

               Number  Type             Irrep      Energy
               1       Occ  Alpha       1 (A)     -0.6809
               1       Occ  Beta        1 (A)     -0.6809
               2       Vir  Alpha       2 (A)      0.2976
               3       Vir  Alpha       3 (A)      0.6702
               4       Vir  Alpha       4 (A)      1.8523
               2       Vir  Beta        2 (A)      0.2976
               3       Vir  Beta        3 (A)      0.6702
               4       Vir  Beta        4 (A)      1.8523


 EOMEE transition 2/A
 Total energy = -0.26289444 a.u.  Excitation energy = 22.17644674 eV.
 R0^2 = 0.0000  R1^2 = 0.9990  R2^2 = 0.0010  Res^2 = 3.82e-31
 Conv-d = yes

 Amplitude    Transitions between orbitals
  0.7067411089       1 (A) A                   ->    3 (A) A                    
 -0.7067411089       1 (A) B                   ->    3 (A) B                    
 -0.0227377433       1 (A) A       1 (A) B     ->    2 (A) A       4 (A) B      
  0.0227377433       1 (A) A       1 (A) B     ->    4 (A) A       2 (A) B      
  0.0227377433       1 (A) A       1 (A) B     ->    4 (A) B       2 (A) A      
 -0.0227377433       1 (A) A       1 (A) B     ->    2 (A) B       4 (A) A      
  0.0227377433       1 (A) B       1 (A) A     ->    2 (A) A       4 (A) B      
 -0.0227377433       1 (A) B       1 (A) A     ->    4 (A) A       2 (A) B      
  0.0227377433       1 (A) B       1 (A) A     ->    2 (A) B       4 (A) A      
 -0.0227377433       1 (A) B       1 (A) A     ->    4 (A) B       2 (A) A      

              Summary of significant orbitals:

               Number  Type             Irrep      Energy
               1       Occ  Alpha       1 (A)     -0.6809
               1       Occ  Beta        1 (A)     -0.6809
               2       Vir  Alpha       2 (A)      0.2976
               3       Vir  Alpha       3 (A)      0.6702
               4       Vir  Alpha       4 (A)      1.8523
               2       Vir  Beta        2 (A)      0.2976
               3       Vir  Beta        3 (A)      0.6702
               4       Vir  Beta        4 (A)      1.8523


 EOMEE transition 3/A
 Total energy = 0.56219769 a.u.  Excitation energy = 44.62834564 eV.
 R0^2 = 0.0000  R1^2 = 0.0201  R2^2 = 0.9799  Res^2 = 2.66e-31
 Conv-d = yes

 Amplitude    Transitions between orbitals
  0.0719435422       1 (A) A                   ->    2 (A) A                    
 -0.0719435422       1 (A) B                   ->    2 (A) B                    
  0.0699771137       1 (A) A                   ->    4 (A) A                    
 -0.0699771137       1 (A) B                   ->    4 (A) B                    
  0.6961988127       1 (A) A       1 (A) B     ->    2 (A) A       3 (A) B      
 -0.6961988127       1 (A) A       1 (A) B     ->    3 (A) A       2 (A) B      
 -0.6961988127       1 (A) A       1 (A) B     ->    3 (A) B       2 (A) A      
  0.6961988127       1 (A) A       1 (A) B     ->    2 (A) B       3 (A) A      
 -0.6961988127       1 (A) B       1 (A) A     ->    2 (A) A       3 (A) B      
  0.6961988127       1 (A) B       1 (A) A     ->    3 (A) A       2 (A) B      
 -0.6961988127       1 (A) B       1 (A) A     ->    2 (A) B       3 (A) A      
  0.6961988127       1 (A) B       1 (A) A     ->    3 (A) B       2 (A) A      
 -0.0723501450       1 (A) A       1 (A) B     ->    3 (A) A       4 (A) B      
  0.0723501450       1 (A) A       1 (A) B     ->    4 (A) A       3 (A) B      
  0.0723501450       1 (A) A       1 (A) B     ->    4 (A) B       3 (A) A      
 -0.0723501450       1 (A) A       1 (A) B     ->    3 (A) B       4 (A) A      
  0.0723501450       1 (A) B       1 (A) A     ->    3 (A) A       4 (A) B      
 -0.0723501450       1 (A) B       1 (A) A     ->    4 (A) A       3 (A) B      
  0.0723501450       1 (A) B       1 (A) A     ->    3 (A) B       4 (A) A      
 -0.0723501450       1 (A) B       1 (A) A     ->    4 (A) B       3 (A) A      

              Summary of significant orbitals:

               Number  Type             Irrep      Energy
               1       Occ  Alpha       1 (A)     -0.6809
               1       Occ  Beta        1 (A)     -0.6809
               2       Vir  Alpha       2 (A)      0.2976
               3       Vir  Alpha       3 (A)      0.6702
               4       Vir  Alpha       4 (A)      1.8523
               2       Vir  Beta        2 (A)      0.2976
               3       Vir  Beta        3 (A)      0.6702
               4       Vir  Beta        4 (A)      1.8523


 EEs and amplitudes of EOMEE has be exported to fchk file
Running a double precision version
      EOM-CCSD/MP2 left amplitudes will be solved using Davidson.
        Amplitudes will be solved using MOM  algorithm.
     Hard-coded thresholds: 
     LinDepThresh=1.00e-15  NormThresh=1.00e-06  ReorthogonThresh=1.00e-02

      Roots     MaxVec    MaxIter   Precond   Conv      Shift    
      3         120       60        1         1.00e-05  0.00e+00  
 ------------------------------------------------------------------------------
      Iter ConvRoots NVecs ResNorm Current eigenvalues (eV)
 ------------------------------------------------------------------------------
      0    3      3     6.34e-10   14.7317*  22.1764*  44.6283*  

     Davidson procedure converged

 Excited state properties for  EOMEE-CCSD transition 1/A
 Dipole moment (a.u.): 0.000000 (X -0.000000, Y -0.000000, Z 0.000000)
 R-squared (a.u.): 8.412555 (XX 1.816420, YY 1.816420, ZZ 4.779716)
 Gauge origin (a.u.): (0.000000, 0.000000, 0.000000)
 Angular momentum (a.u.) against gauge origin: 
 (X 0.000000i, Y 0.000000i, Z 0.000000i)
 Traces of the OPDMs: Tr(AA) 1.000000, Tr(BB) 1.000000

 Excited state properties for  EOMEE-CCSD transition 2/A
 Dipole moment (a.u.): 0.000000 (X -0.000000, Y -0.000000, Z 0.000000)
 R-squared (a.u.): 7.724276 (XX 2.506847, YY 2.506847, ZZ 2.710581)
 Gauge origin (a.u.): (0.000000, 0.000000, 0.000000)
 Angular momentum (a.u.) against gauge origin: 
 (X 0.000000i, Y 0.000000i, Z 0.000000i)
 Traces of the OPDMs: Tr(AA) 1.000000, Tr(BB) 1.000000

 Excited state properties for  EOMEE-CCSD transition 3/A
 Dipole moment (a.u.): 0.000000 (X -0.000000, Y -0.000000, Z 0.000000)
 R-squared (a.u.): 12.938040 (XX 3.364045, YY 3.364045, ZZ 6.209950)
 Gauge origin (a.u.): (0.000000, 0.000000, 0.000000)
 Angular momentum (a.u.) against gauge origin: 
 (X 0.000000i, Y 0.000000i, Z 0.000000i)
 Traces of the OPDMs: Tr(AA) 1.000000, Tr(BB) 1.000000

 EOMEE-CCSD calculation:   CPU 1.69 s  wall 1.20 s

 Total ccman2 time:   CPU 2.73 s  wall 1.80 s


 --------------------------------------------------------------

                    Orbital Energies (a.u.)
 --------------------------------------------------------------

 Alpha MOs
 -- Occupied --
 -0.6809
 -- Virtual --
  0.2976   0.6702   1.8523
 --------------------------------------------------------------

          Ground-State Mulliken Net Atomic Charges

     Atom                 Charge (a.u.)
  ----------------------------------------
      1 H                     0.000000
      2 H                     0.000000
  ----------------------------------------
  Sum of atomic charges =     0.000000

 -----------------------------------------------------------------
                    Cartesian Multipole Moments
 -----------------------------------------------------------------
    Charge (ESU x 10^10)
                 0.0000
    Dipole Moment (Debye)
         X       0.0000      Y       0.0000      Z       0.0000
       Tot       0.0000
    Quadrupole Moments (Debye-Ang)
        XX      -1.6671     XY       0.0000     YY      -1.6671
        XZ       0.0000     YZ       0.0000     ZZ      -1.4666
    Octopole Moments (Debye-Ang^2)
       XXX       0.0000    XXY       0.0000    XYY       0.0000
       YYY       0.0000    XXZ       0.0000    XYZ       0.0000
       YYZ       0.0000    XZZ       0.0000    YZZ       0.0000
       ZZZ       0.0000
    Hexadecapole Moments (Debye-Ang^3)
      XXXX      -1.3391   XXXY       0.0000   XXYY      -0.4464
      XYYY       0.0000   YYYY      -1.3391   XXXZ       0.0000
      XXYZ       0.0000   XYYZ       0.0000   YYYZ       0.0000
      XXZZ      -0.5113   XYZZ       0.0000   YYZZ      -0.5113
      XZZZ       0.0000   YZZZ       0.0000   ZZZZ      -1.7143
 -----------------------------------------------------------------
 Total job time:  3.08s(wall), 4.29s(cpu) 
 Thu Aug 11 11:19:28 2022

        *************************************************************
        *                                                           *
        *  Thank you very much for using Q-Chem.  Have a nice day.  *
        *                                                           *
        *************************************************************


