Jobname.Temp
FOPT      R                             STO-3G              
Number of atoms                            I                3
Charge                                     I                0
Multiplicity                               I                1
Number of electrons                        I               10
Number of alpha electrons                  I                5
Number of beta electrons                   I                5
Atomic numbers                             I   N=           3
           1           8           1
Current cartesian coordinates              R   N=           9
  1.47983867E+00 -9.16332629E-01 -5.51387794E-16 -3.62951360E-05  2.29111256E-01
  6.43047950E-17 -1.47954831E+00 -9.16557422E-01  1.29175768E-17
Nuclear charges                            R   N=           3
  1.00000000E+00  8.00000000E+00  1.00000000E+00
Number of basis functions                  I                7
Number of contracted shells                I                4
Number of primitive shells                 I               12
Highest angular momentum                   I                1
Largest degree of contraction              I                3
Shell types                                I   N=           4
           0           0          -1           0
Number of primitives per shell             I   N=           4
           3           3           3           3
Shell to atom map                          I   N=           4
           1           2           2           3
Primitive exponents                        R   N=          12
  3.42525091E+00  6.23913730E-01  1.68855400E-01  1.30709320E+02  2.38088610E+01
  6.44360830E+00  5.03315130E+00  1.16959610E+00  3.80389000E-01  3.42525091E+00
  6.23913730E-01  1.68855400E-01
Contraction coefficients                   R   N=          12
  1.54328971E-01  5.35328142E-01  4.44634542E-01  1.54328969E-01  5.35328136E-01
  4.44634536E-01 -9.99672287E-02  3.99512825E-01  7.00115461E-01  1.54328971E-01
  5.35328142E-01  4.44634542E-01
P(S=P) Contraction coefficients            R   N=          12
  0.00000000E+00  0.00000000E+00  0.00000000E+00  0.00000000E+00  0.00000000E+00
  0.00000000E+00  1.55916268E-01  6.07683714E-01  3.91957386E-01  0.00000000E+00
  0.00000000E+00  0.00000000E+00
Coordinates of each shell                  R   N=          12
  1.47983867E+00 -9.16332629E-01 -5.51387794E-16 -3.62951360E-05  2.29111256E-01
  6.43047950E-17 -3.62951360E-05  2.29111256E-01  6.43047950E-17 -1.47954831E+00
 -9.16557422E-01  1.29175768E-17
Overlap Matrix                             R   N=          28
  1.00000000E+00  4.98927228E-02  1.00000000E+00  4.53343482E-01  2.36703937E-01
  1.00000000E+00  3.01862146E-01  0.00000000E+00  0.00000000E+00  1.00000000E+00
 -2.33645515E-01 -2.31171306E-18  4.68117047E-17  0.00000000E+00  1.00000000E+00
 -1.25587830E-16 -7.23953796E-33  0.00000000E+00  0.00000000E+00  0.00000000E+00
  1.00000000E+00  2.33413667E-01  4.99021190E-02  4.53394133E-01 -3.01834750E-01
 -2.33727483E-01 -1.04834892E-17  1.00000000E+00
Core Hamiltonian Matrix                    R   N=          28
 -4.94189473E+00 -1.61556327E+00 -3.26840264E+01 -3.53279522E+00 -7.60407278E+00
 -9.30109046E+00 -1.94890980E+00 -6.65447357E-08 -4.21076749E-06 -7.57477052E+00
  1.57459799E+00  1.77584730E-02  2.11268997E-01 -1.64856416E-05 -7.51678501E+00
  8.30079469E-16  5.17002910E-18  6.15074529E-17  2.75965514E-17 -2.52516146E-17
 -7.43003752E+00 -1.46306409E+00 -1.61586705E+00 -3.53325857E+00  1.94876401E+00
  1.57516460E+00  8.69373269E-17 -4.94218272E+00
Orbital Coefficients CCMAN2 Alpha          R   N=          49
  5.61355773E-03 -9.94207180E-01 -2.58919722E-02  9.32761750E-08  4.03421528E-03
 -2.29893109E-16  5.61455046E-03 -1.56147794E-01  2.34131997E-01 -8.45730447E-01
  7.69608617E-06  1.18380029E-01 -9.40064275E-16 -1.56177538E-01 -4.47108006E-01
  1.33030783E-05 -7.20109186E-05 -6.05500840E-01 -1.06993206E-04 -5.20523665E-16
  4.47115761E-01 -2.90800090E-01 -1.01333686E-01  5.25480674E-01 -1.11766565E-04
  7.69596810E-01  2.38028683E-14 -2.90742014E-01 -6.62779439E-15 -2.46576346E-15
  1.29557567E-14 -1.56754630E-16  1.76680105E-14 -1.00000000E+00 -7.32081662E-15
 -7.74253908E-01 -1.27666814E-01  8.28872902E-01  3.67790728E-04 -7.40516190E-01
  3.13473816E-16 -7.73809551E-01  8.09500344E-01 -4.53193166E-05  3.23833566E-04
 -9.72216381E-01 -3.47221595E-04  5.15964040E-16 -8.10037694E-01
Orbital Coefficients CCMAN2 Beta           R   N=          49
 -1.56147794E-01  2.34131997E-01 -8.45730447E-01  7.69608617E-06  1.18380029E-01
 -9.40064275E-16 -1.56177538E-01 -4.47108006E-01  1.33030783E-05 -7.20109186E-05
 -6.05500840E-01 -1.06993206E-04 -5.20523665E-16  4.47115761E-01 -2.90800090E-01
 -1.01333686E-01  5.25480674E-01 -1.11766565E-04  7.69596810E-01  2.38028683E-14
 -2.90742014E-01 -6.62779439E-15 -2.46576346E-15  1.29557567E-14 -1.56754630E-16
  1.76680105E-14 -1.00000000E+00 -7.32081662E-15 -7.74253908E-01 -1.27666814E-01
  8.28872902E-01  3.67790728E-04 -7.40516190E-01  3.13473816E-16 -7.73809551E-01
  8.09500344E-01 -4.53193166E-05  3.23833566E-04 -9.72216381E-01 -3.47221595E-04
  5.15964040E-16 -8.10037694E-01  5.61355773E-03 -9.94207180E-01 -2.58919722E-02
  9.32761750E-08  4.03421528E-03 -2.29893109E-16  5.61455046E-03
Dipole_Data                                R   N=           3
  9.88542438E-05 -1.55901498E+00 -6.31972605E-15
Quadrupole_Data                            R   N=           6
 -4.49796317E+00  6.82484517E-05 -5.45670173E+00 -7.31790204E-16 -2.41435849E-15
 -6.13717593E+00
Octapole_Data                              R   N=          10
  9.34503595E-05 -4.54356490E-01 -9.45952480E-05 -2.54621619E-02 -8.38289872E-16
  1.89563201E-17 -1.27539301E-15 -3.31050742E-05  4.01787703E-02 -2.01739171E-15
Hexadecapole_Data                          R   N=          15
 -7.13808332E+00 -7.00670509E-05 -1.84999892E+00  8.46969547E-05 -5.17449090E+00
  1.70882898E-16 -2.78989097E-16  3.10427366E-17 -1.21912450E-15 -1.88530862E+00
  5.31015459E-06 -1.44562434E+00  3.27363135E-16 -1.18532600E-15 -3.28912178E+00
Current cartesian coordinates              R   N=           9
  1.37064495E+00 -8.46364980E-01  0.00000000E+00  1.31663006E-05  8.91805042E-02
  0.00000000E+00 -1.37040405E+00 -8.46594319E-01  0.00000000E+00
Overlap Matrix                             R   N=          28
  1.00000000E+00  6.50244862E-02  1.00000000E+00  5.27995299E-01  2.36703937E-01
  1.00000000E+00  3.46295074E-01 -1.01597177E-21  1.95294514E-21  1.00000000E+00
 -2.36368948E-01 -2.64500599E-18  2.93720187E-17  4.77167120E-38  1.00000000E+00
  0.00000000E+00  0.00000000E+00  0.00000000E+00  0.00000000E+00  0.00000000E+00
  1.00000000E+00  2.75504867E-01  6.50283342E-02  5.28012746E-01 -3.46257182E-01
 -2.36438034E-01  0.00000000E+00  1.00000000E+00
Core Hamiltonian Matrix                    R   N=          28
 -5.41142043E+00 -2.11324335E+00 -3.28204685E+01 -4.26985667E+00 -7.63636918E+00
 -9.42304591E+00 -2.31898914E+00 -1.06578498E-06 -1.44678676E-05 -7.73427313E+00
  1.66309660E+00  2.07991160E-02  2.36075236E-01 -1.43241105E-05 -7.62487815E+00
  0.00000000E+00  0.00000000E+00  0.00000000E+00  0.00000000E+00  0.00000000E+00
 -7.52938201E+00 -1.86724294E+00 -2.11336827E+00 -4.27002622E+00  2.31873876E+00
  1.66357268E+00  0.00000000E+00 -5.41152896E+00
Orbital Coefficients CCMAN2 Alpha          R   N=          49
  6.98212812E-03 -9.93910597E-01 -2.85563536E-02 -2.23044771E-07  4.88539838E-03
  1.01444084E-16  6.98254917E-03  1.63552057E-01 -2.30940193E-01  8.07620675E-01
  5.19170120E-06 -1.49149810E-01  9.18232863E-16  1.63562514E-01  4.33096156E-01
 -3.55140187E-06  1.96561135E-05  6.04591282E-01  6.35525905E-05  1.95925554E-16
 -4.33091059E-01  2.35245865E-01  1.01044845E-01 -5.30989643E-01  8.02088735E-05
 -8.17255263E-01  1.20102084E-14  2.35235040E-01 -2.12140757E-15 -8.99808830E-16
  5.42015613E-15 -6.10501953E-16  9.57139606E-15  1.00000000E+00 -3.01115971E-15
 -8.67951030E-01 -1.46395493E-01  1.05342440E+00  1.47729089E-04 -7.04675503E-01
  4.74813930E-16 -8.67824338E-01  9.18629848E-01 -1.38568914E-05  1.16103238E-04
 -1.06266527E+00 -1.63191164E-04  7.45525242E-17 -9.18799518E-01
Orbital Coefficients CCMAN2 Beta           R   N=          49
  1.63552057E-01 -2.30940193E-01  8.07620675E-01  5.19170120E-06 -1.49149810E-01
  9.18232863E-16  1.63562514E-01  4.33096156E-01 -3.55140187E-06  1.96561135E-05
  6.04591282E-01  6.35525905E-05  1.95925554E-16 -4.33091059E-01  2.35245865E-01
  1.01044845E-01 -5.30989643E-01  8.02088735E-05 -8.17255263E-01  1.20102084E-14
  2.35235040E-01 -2.12140757E-15 -8.99808830E-16  5.42015613E-15 -6.10501953E-16
  9.57139606E-15  1.00000000E+00 -3.01115971E-15 -8.67951030E-01 -1.46395493E-01
  1.05342440E+00  1.47729089E-04 -7.04675503E-01  4.74813930E-16 -8.67824338E-01
  9.18629848E-01 -1.38568914E-05  1.16103238E-04 -1.06266527E+00 -1.63191164E-04
  7.45525242E-17 -9.18799518E-01  6.98212812E-03 -9.93910597E-01 -2.85563536E-02
 -2.23044771E-07  4.88539838E-03  1.01444084E-16  6.98254917E-03
Dipole_Data                                R   N=           3
  1.45702956E-04 -1.69245157E+00 -1.69848242E-15
Quadrupole_Data                            R   N=           6
 -4.29849557E+00  5.94826142E-05 -5.32910323E+00  2.81830999E-16  1.29555153E-15
 -6.02638029E+00
Octapole_Data                              R   N=          10
 -1.09366633E-04 -2.49426431E-01 -1.74005498E-04  6.30433172E-01 -6.10310614E-16
  1.54467843E-16 -3.46038884E-16 -1.15251837E-04  2.79227963E-01 -1.05456462E-15
Hexadecapole_Data                          R   N=          15
 -6.02789793E+00 -1.12574223E-04 -1.57147663E+00  8.10631661E-06 -4.37992151E+00
 -8.21542726E-17  2.17290089E-16 -2.33425877E-17  5.18575019E-16 -1.66830606E+00
 -1.87876557E-05 -1.28221986E+00 -7.36094422E-18  4.96870766E-16 -3.16515568E+00
Current cartesian coordinates              R   N=           9
  1.26838207E+00 -8.16798298E-01  0.00000000E+00  3.51852512E-05  3.00404338E-02
  0.00000000E+00 -1.26816319E+00 -8.17020930E-01  0.00000000E+00
Overlap Matrix                             R   N=          28
  1.00000000E+00  7.66396475E-02  1.00000000E+00  5.77746567E-01  2.36703937E-01
  1.00000000E+00  3.64879568E-01  4.17734537E-22  6.02403673E-21  1.00000000E+00
 -2.43619592E-01 -2.13291242E-19  3.08430680E-18  2.38583560E-38  1.00000000E+00
  0.00000000E+00  0.00000000E+00  0.00000000E+00  0.00000000E+00  0.00000000E+00
  1.00000000E+00  3.20173693E-01  7.66396349E-02  5.77746517E-01 -3.64836797E-01
 -2.43683608E-01  0.00000000E+00  1.00000000E+00
Core Hamiltonian Matrix                    R   N=          28
 -5.76005058E+00 -2.49817369E+00 -3.29266698E+01 -4.79408574E+00 -7.66150743E+00
 -9.51222244E+00 -2.50374754E+00 -2.13140954E-06 -2.31010063E-05 -7.84564959E+00
  1.76853928E+00  2.42556405E-02  2.63012789E-01 -1.18607886E-05 -7.71031979E+00
  0.00000000E+00  0.00000000E+00  0.00000000E+00  0.00000000E+00  0.00000000E+00
 -7.60139211E+00 -2.26933796E+00 -2.49817328E+00 -4.79408523E+00  2.50343700E+00
  1.76897850E+00  0.00000000E+00 -5.76005024E+00
Orbital Coefficients CCMAN2 Alpha          R   N=          49
 -8.02539491E-03  9.93711099E-01  3.07194052E-02  4.95345855E-07 -5.63656155E-03
 -5.62300083E-16 -8.02539348E-03 -1.62374567E-01  2.30114241E-01 -7.88022766E-01
 -1.53371749E-05  1.74473435E-01 -8.43436078E-16 -1.62374537E-01 -4.22417227E-01
 -9.15645992E-09  5.12664768E-08 -6.15012192E-01 -5.39475901E-05  2.74851002E-16
  4.22417249E-01 -1.99484466E-01 -1.00767107E-01  5.29790453E-01 -7.36270363E-05
  8.39217251E-01 -1.07954755E-14 -1.99484490E-01  2.72276199E-15  8.70617544E-16
 -6.42068534E-15  7.42520601E-17 -9.04749956E-15 -1.00000000E+00  3.73935456E-15
  9.40202056E-01  1.55564932E-01 -1.22167830E+00 -6.12383773E-05  7.00629238E-01
  9.15150752E-16  9.40202428E-01  1.01514061E+00  3.98614199E-08 -3.79287646E-07
 -1.12494752E+00 -9.85238845E-05 -5.69137121E-16 -1.01514009E+00
Orbital Coefficients CCMAN2 Beta           R   N=          49
 -1.62374567E-01  2.30114241E-01 -7.88022766E-01 -1.53371749E-05  1.74473435E-01
 -8.43436078E-16 -1.62374537E-01 -4.22417227E-01 -9.15645992E-09  5.12664768E-08
 -6.15012192E-01 -5.39475901E-05  2.74851002E-16  4.22417249E-01 -1.99484466E-01
 -1.00767107E-01  5.29790453E-01 -7.36270363E-05  8.39217251E-01 -1.07954755E-14
 -1.99484490E-01  2.72276199E-15  8.70617544E-16 -6.42068534E-15  7.42520601E-17
 -9.04749956E-15 -1.00000000E+00  3.73935456E-15  9.40202056E-01  1.55564932E-01
 -1.22167830E+00 -6.12383773E-05  7.00629238E-01  9.15150752E-16  9.40202428E-01
  1.01514061E+00  3.98614199E-08 -3.79287646E-07 -1.12494752E+00 -9.85238845E-05
 -5.69137121E-16 -1.01514009E+00 -8.02539491E-03  9.93711099E-01  3.07194052E-02
  4.95345855E-07 -5.63656155E-03 -5.62300083E-16 -8.02539348E-03
Dipole_Data                                R   N=           3
  1.54638657E-04 -1.76225531E+00 -5.10693670E-15
Quadrupole_Data                            R   N=           6
 -4.29162796E+00  4.65296512E-05 -5.22330348E+00  3.73900036E-16  1.11220901E-15
 -5.95133806E+00
Octapole_Data                              R   N=          10
 -2.21544761E-04 -1.36964532E-01 -2.04284292E-04  8.63083679E-01 -1.74143998E-16
  7.98140469E-17 -2.88643658E-16 -1.51275403E-04  3.67224654E-01 -1.34094031E-15
Hexadecapole_Data                          R   N=          15
 -5.36101913E+00 -1.04280575E-04 -1.42224292E+00 -7.62914459E-07 -4.06205745E+00
  3.32692258E-17  3.89180627E-17  9.32494427E-18  2.67053638E-16 -1.51833146E+00
 -1.94438332E-05 -1.21336511E+00  7.04539674E-17  2.87720228E-16 -3.08157473E+00
Current cartesian coordinates              R   N=           9
  1.24461130E+00 -8.21088456E-01  0.00000000E+00  3.42935493E-05  3.86164839E-02
  0.00000000E+00 -1.24439153E+00 -8.21306822E-01  0.00000000E+00
Overlap Matrix                             R   N=          28
  1.00000000E+00  7.77995654E-02  1.00000000E+00  5.82418428E-01  2.36703937E-01
  1.00000000E+00  3.62275984E-01  0.00000000E+00  6.02403673E-21  1.00000000E+00
 -2.50246027E-01 -2.80219909E-18  6.87968569E-18  4.77167120E-38  1.00000000E+00
  0.00000000E+00  0.00000000E+00  0.00000000E+00  0.00000000E+00  0.00000000E+00
  1.00000000E+00  3.31315775E-01  7.77995901E-02  5.82418527E-01 -3.62232066E-01
 -2.50309652E-01  0.00000000E+00  1.00000000E+00
Core Hamiltonian Matrix                    R   N=          28
 -5.79848873E+00 -2.53682683E+00 -3.29374511E+01 -4.84685361E+00 -7.66405942E+00
 -9.52096953E+00 -2.49154757E+00 -2.20921589E-06 -2.38560116E-05 -7.85104447E+00
  1.82363066E+00  2.52363729E-02  2.72269231E-01 -1.11579555E-05 -7.72424362E+00
  0.00000000E+00  0.00000000E+00  0.00000000E+00  0.00000000E+00  0.00000000E+00
 -7.60844253E+00 -2.35161665E+00 -2.53682763E+00 -4.84685461E+00  2.49122763E+00
  1.82406831E+00  0.00000000E+00 -5.79848939E+00
Orbital Coefficients CCMAN2 Alpha          R   N=          49
  8.13211587E-03 -9.93695503E-01 -3.09309542E-02 -5.10566164E-07  5.83336748E-03
  5.86611138E-16  8.13211871E-03  1.61271895E-01 -2.29847769E-01  7.86017294E-01
  1.58108787E-05 -1.80732064E-01  2.99479612E-16  1.61271951E-01  4.23540987E-01
 -1.75857623E-08  9.92994871E-08  6.17400808E-01  5.42292618E-05  7.74604521E-16
 -4.23540944E-01  1.98796389E-01  1.02473330E-01 -5.38029986E-01  7.33329965E-05
 -8.35176941E-01 -2.11680646E-14  1.98796343E-01 -4.14627758E-15 -2.37471086E-15
  1.18869118E-14  9.72502980E-17  1.70635280E-14 -1.00000000E+00 -4.93064108E-15
  9.46570465E-01  1.55447375E-01 -1.23457514E+00 -6.32172035E-05  7.14642158E-01
 -4.10486569E-16  9.46569699E-01  1.02540092E+00 -8.03314395E-08  7.70177332E-07
 -1.12467606E+00 -9.91065893E-05  2.88645222E-16 -1.02540198E+00
Orbital Coefficients CCMAN2 Beta           R   N=          49
  1.61271895E-01 -2.29847769E-01  7.86017294E-01  1.58108787E-05 -1.80732064E-01
  2.99479612E-16  1.61271951E-01  4.23540987E-01 -1.75857623E-08  9.92994871E-08
  6.17400808E-01  5.42292618E-05  7.74604521E-16 -4.23540944E-01  1.98796389E-01
  1.02473330E-01 -5.38029986E-01  7.33329965E-05 -8.35176941E-01 -2.11680646E-14
  1.98796343E-01 -4.14627758E-15 -2.37471086E-15  1.18869118E-14  9.72502980E-17
  1.70635280E-14 -1.00000000E+00 -4.93064108E-15  9.46570465E-01  1.55447375E-01
 -1.23457514E+00 -6.32172035E-05  7.14642158E-01 -4.10486569E-16  9.46569699E-01
  1.02540092E+00 -8.03314395E-08  7.70177332E-07 -1.12467606E+00 -9.91065893E-05
  2.88645222E-16 -1.02540198E+00  8.13211587E-03 -9.93695503E-01 -3.09309542E-02
 -5.10566164E-07  5.83336748E-03  5.86611138E-16  8.13211871E-03
Dipole_Data                                R   N=           3
  1.56979217E-04 -1.78850799E+00 -2.70940735E-15
Quadrupole_Data                            R   N=           6
 -4.34389811E+00  3.99702672E-05 -5.20663427E+00 -2.47890460E-16 -1.79732948E-15
 -5.94573701E+00
Octapole_Data                              R   N=          10
 -2.23944763E-04 -1.37028370E-01 -1.97166430E-04  7.88780108E-01 -4.91092014E-16
 -4.41929920E-17 -5.16478896E-16 -1.48890024E-04  3.44202712E-01 -1.20382743E-15
Hexadecapole_Data                          R   N=          15
 -5.30179337E+00 -1.02149025E-04 -1.41020167E+00  5.49751681E-07 -4.05597561E+00
 -3.59307312E-17 -1.73305600E-16 -1.09816624E-17 -5.70968495E-16 -1.49819306E+00
 -1.81802489E-05 -1.21213869E+00 -5.46188658E-17 -5.75925032E-16 -3.07469944E+00
Current cartesian coordinates              R   N=           9
  1.22711675E+00 -8.29032642E-01  0.00000000E+00  3.29892440E-05  5.45018489E-02
  0.00000000E+00 -1.22689567E+00 -8.29248001E-01  0.00000000E+00
Overlap Matrix                             R   N=          28
  1.00000000E+00  7.78522425E-02  1.00000000E+00  5.82629406E-01  2.36703937E-01
  1.00000000E+00  3.57373107E-01 -1.33876378E-21  6.02403673E-21  1.00000000E+00
 -2.57318593E-01 -1.08256121E-18  1.46860094E-17  9.54334239E-38  1.00000000E+00
  0.00000000E+00  0.00000000E+00  0.00000000E+00  0.00000000E+00  0.00000000E+00
  1.00000000E+00  3.39701906E-01  7.78522428E-02  5.82629408E-01 -3.57327938E-01
 -2.57381315E-01  0.00000000E+00  1.00000000E+00
Core Hamiltonian Matrix                    R   N=          28
 -5.80530929E+00 -2.53866056E+00 -3.29379416E+01 -4.85182823E+00 -7.66417551E+00
 -9.52136604E+00 -2.45798654E+00 -2.27853403E-06 -2.45771914E-05 -7.84492172E+00
  1.87731122E+00  2.59646192E-02  2.80061306E-01 -9.97680259E-06 -7.73124205E+00
  0.00000000E+00  0.00000000E+00  0.00000000E+00  0.00000000E+00  0.00000000E+00
 -7.60876210E+00 -2.40372886E+00 -2.53866057E+00 -4.85182825E+00  2.45765700E+00
  1.87774262E+00  0.00000000E+00 -5.80530930E+00
Orbital Coefficients CCMAN2 Alpha          R   N=          49
  8.13476240E-03 -9.93698785E-01 -3.09231741E-02 -5.24397636E-07  5.97569444E-03
 -2.45432630E-16  8.13476245E-03  1.60445837E-01 -2.29529576E-01  7.85247224E-01
  1.62543027E-05 -1.85224717E-01  1.44946353E-15  1.60445838E-01  4.26197543E-01
 -2.62485962E-10  1.49376481E-09  6.18924545E-01  5.43165894E-05 -2.99646003E-16
 -4.26197542E-01  2.01754073E-01  1.04538197E-01 -5.48213589E-01  7.26763532E-05
 -8.28133945E-01 -5.28736611E-15  2.01754072E-01  4.36366442E-16  6.07711305E-16
 -2.54763654E-15 -4.28837075E-16 -5.10803329E-15  1.00000000E+00 -6.59319991E-16
 -9.45386100E-01 -1.54445052E-01  1.23020452E+00  6.41521478E-05 -7.30917761E-01
 -3.96908638E-16 -9.45386088E-01  1.02627023E+00 -1.26087367E-09  1.20185163E-08
 -1.11700651E+00 -9.80332861E-05 -2.48307173E-16 -1.02627024E+00
Orbital Coefficients CCMAN2 Beta           R   N=          49
  1.60445837E-01 -2.29529576E-01  7.85247224E-01  1.62543027E-05 -1.85224717E-01
  1.44946353E-15  1.60445838E-01  4.26197543E-01 -2.62485962E-10  1.49376481E-09
  6.18924545E-01  5.43165894E-05 -2.99646003E-16 -4.26197542E-01  2.01754073E-01
  1.04538197E-01 -5.48213589E-01  7.26763532E-05 -8.28133945E-01 -5.28736611E-15
  2.01754072E-01  4.36366442E-16  6.07711305E-16 -2.54763654E-15 -4.28837075E-16
 -5.10803329E-15  1.00000000E+00 -6.59319991E-16 -9.45386100E-01 -1.54445052E-01
  1.23020452E+00  6.41521478E-05 -7.30917761E-01 -3.96908638E-16 -9.45386088E-01
  1.02627023E+00 -1.26087367E-09  1.20185163E-08 -1.11700651E+00 -9.80332861E-05
 -2.48307173E-16 -1.02627024E+00  8.13476240E-03 -9.93698785E-01 -3.09231741E-02
 -5.24397636E-07  5.97569444E-03 -2.45432630E-16  8.13476245E-03
Dipole_Data                                R   N=           3
  1.59059055E-04 -1.81246118E+00 -9.43326857E-15
Quadrupole_Data                            R   N=           6
 -4.40426391E+00  3.34727132E-05 -5.19850949E+00  2.78896289E-16 -9.99100940E-17
 -5.94711600E+00
Octapole_Data                              R   N=          10
 -2.25109239E-04 -1.48108833E-01 -1.89526863E-04  6.79380035E-01 -4.67930312E-16
  1.40748502E-16 -6.47953838E-16 -1.45970290E-04  3.08759685E-01 -2.53891532E-15
Hexadecapole_Data                          R   N=          15
 -5.29458216E+00 -1.02001544E-04 -1.41115811E+00  2.94576533E-07 -4.08206744E+00
 -6.00266054E-17 -1.29092584E-16 -2.32686423E-17 -1.82535201E-16 -1.48924976E+00
 -1.76388081E-05 -1.21792232E+00 -3.71902905E-20 -1.53663157E-16 -3.07549018E+00
Current cartesian coordinates              R   N=           9
  1.20814587E+00 -8.37649686E-01  0.00000000E+00  3.14786384E-05  7.17326091E-02
  0.00000000E+00 -1.20792328E+00 -8.37861717E-01  0.00000000E+00
Overlap Matrix                             R   N=          28
  1.00000000E+00  7.78476213E-02  1.00000000E+00  5.82610902E-01  2.36703937E-01
  1.00000000E+00  3.51832177E-01 -4.52773335E-22  6.02403673E-21  1.00000000E+00
 -2.64834155E-01 -5.79190717E-19  1.23372272E-17  9.54334239E-38  1.00000000E+00
  0.00000000E+00  0.00000000E+00  0.00000000E+00  0.00000000E+00  0.00000000E+00
  1.00000000E+00  3.48974539E-01  7.78476212E-02  5.82610902E-01 -3.51785689E-01
 -2.64895903E-01  0.00000000E+00  1.00000000E+00
Core Hamiltonian Matrix                    R   N=          28
 -5.81119532E+00 -2.53859597E+00 -3.29378985E+01 -4.85465845E+00 -7.66416532E+00
 -9.52133125E+00 -2.41973032E+00 -2.34504342E-06 -2.52947392E-05 -7.83761912E+00
  1.93431507E+00  2.67214642E-02  2.88230692E-01 -8.70130851E-06 -7.73846781E+00
  0.00000000E+00  0.00000000E+00  0.00000000E+00  0.00000000E+00  0.00000000E+00
 -7.60873406E+00 -2.46055661E+00 -2.53859596E+00 -4.85465844E+00  2.41939078E+00
  1.93473974E+00  0.00000000E+00 -5.81119532E+00
Orbital Coefficients CCMAN2 Alpha          R   N=          49
  8.12710727E-03 -9.93703779E-01 -3.08977402E-02 -5.37085696E-07  6.12001940E-03
  2.73402768E-16  8.12710726E-03  1.59641314E-01 -2.29166590E-01  7.84368952E-01
  1.66628973E-05 -1.89871331E-01  1.32267780E-15  1.59641314E-01  4.29173474E-01
  3.19410609E-11 -1.83155408E-10  6.20719637E-01  5.44732885E-05 -2.38119008E-15
 -4.29173474E-01  2.05004572E-01  1.06733179E-01 -5.59002363E-01  7.19965636E-05
 -8.20395701E-01  2.40005398E-14  2.05004572E-01 -4.61428924E-15 -2.20096095E-15
  1.33785528E-14  1.29864493E-15  1.94597657E-14  1.00000000E+00 -6.83952036E-15
 -9.43394378E-01 -1.53305453E-01  1.22429529E+00  6.56461572E-05 -7.48044210E-01
 -1.24054925E-15 -9.43394379E-01  1.02713643E+00  1.61947299E-10 -1.53375712E-09
 -1.10824522E+00 -9.72570034E-05 -2.20878103E-16 -1.02713643E+00
Orbital Coefficients CCMAN2 Beta           R   N=          49
  1.59641314E-01 -2.29166590E-01  7.84368952E-01  1.66628973E-05 -1.89871331E-01
  1.32267780E-15  1.59641314E-01  4.29173474E-01  3.19410609E-11 -1.83155408E-10
  6.20719637E-01  5.44732885E-05 -2.38119008E-15 -4.29173474E-01  2.05004572E-01
  1.06733179E-01 -5.59002363E-01  7.19965636E-05 -8.20395701E-01  2.40005398E-14
  2.05004572E-01 -4.61428924E-15 -2.20096095E-15  1.33785528E-14  1.29864493E-15
  1.94597657E-14  1.00000000E+00 -6.83952036E-15 -9.43394378E-01 -1.53305453E-01
  1.22429529E+00  6.56461572E-05 -7.48044210E-01 -1.24054925E-15 -9.43394379E-01
  1.02713643E+00  1.61947299E-10 -1.53375712E-09 -1.10824522E+00 -9.72570034E-05
 -2.20878103E-16 -1.02713643E+00  8.12710727E-03 -9.93703779E-01 -3.08977402E-02
 -5.37085696E-07  6.12001940E-03  2.73402768E-16  8.12710726E-03
Dipole_Data                                R   N=           3
  1.61211284E-04 -1.83698940E+00 -4.49463813E-15
Quadrupole_Data                            R   N=           6
 -4.46920568E+00  2.65394346E-05 -5.19003569E+00  1.07634865E-15  2.85815658E-15
 -5.94882949E+00
Octapole_Data                              R   N=          10
 -2.25966702E-04 -1.59673628E-01 -1.81050729E-04  5.61560759E-01 -4.63355535E-16
 -1.04792745E-17 -2.57573142E-16 -1.42651990E-04  2.70525822E-01 -1.51227456E-15
Hexadecapole_Data                          R   N=          15
 -5.28567726E+00 -1.01264329E-04 -1.41362944E+00  2.05981098E-07 -4.11533005E+00
  4.16816664E-16  3.04823334E-16  1.41702260E-16  9.49224477E-16 -1.47986209E+00
 -1.69461583E-05 -1.22514479E+00  3.94915593E-16  9.39319358E-16 -3.07664149E+00
Current cartesian coordinates              R   N=           9
  1.20957246E+00 -8.36828205E-01  0.00000000E+00  3.16226308E-05  7.00898970E-02
  0.00000000E+00 -1.20935002E+00 -8.37040486E-01  0.00000000E+00
Overlap Matrix                             R   N=          28
  1.00000000E+00  7.78795280E-02  1.00000000E+00  5.82738648E-01  2.36703937E-01
  1.00000000E+00  3.52360491E-01  2.12062884E-22  6.02403673E-21  1.00000000E+00
 -2.64201173E-01 -5.64093607E-18  1.23372272E-17  9.54334239E-38  1.00000000E+00
  0.00000000E+00  0.00000000E+00  0.00000000E+00  0.00000000E+00  0.00000000E+00
  1.00000000E+00  3.48270756E-01  7.78795280E-02  5.82738648E-01 -3.52314114E-01
 -2.64263014E-01  0.00000000E+00  1.00000000E+00
Core Hamiltonian Matrix                    R   N=          28
 -5.81159715E+00 -2.53965012E+00 -3.29381957E+01 -4.85577787E+00 -7.66423566E+00
 -9.52157144E+00 -2.42352751E+00 -2.34025712E-06 -2.52396100E-05 -7.83854846E+00
  1.92965716E+00  2.66670333E-02  2.87603235E-01 -8.81792532E-06 -7.73806894E+00
  0.00000000E+00  0.00000000E+00  0.00000000E+00  0.00000000E+00  0.00000000E+00
 -7.60892765E+00 -2.45664183E+00 -2.53965012E+00 -4.85577787E+00  2.42318878E+00
  1.93008250E+00  0.00000000E+00 -5.81159715E+00
Orbital Coefficients CCMAN2 Alpha          R   N=          49
 -8.13091703E-03  9.93702806E-01  3.09063504E-02  5.36202768E-07 -6.10998548E-03
  5.99048292E-16 -8.13091703E-03 -1.59695659E-01  2.29198467E-01 -7.84411446E-01
 -1.66341647E-05  1.89544910E-01  5.01009337E-16 -1.59695659E-01 -4.28887242E-01
  6.74321710E-14 -3.84553500E-13 -6.20583243E-01 -5.44614152E-05  2.61334164E-15
  4.28887242E-01 -2.04633819E-01 -1.06542903E-01  5.58063344E-01 -7.20607459E-05
  8.21126136E-01  2.99716317E-14 -2.04633819E-01  7.56106758E-15  3.01569435E-15
 -1.68482496E-14  1.27065930E-15 -2.41737771E-14  1.00000000E+00  5.72140319E-15
 -9.43787801E-01 -1.53425709E-01  1.22528888E+00  6.55187239E-05 -7.46580325E-01
  9.06741011E-16 -9.43787801E-01  1.02731625E+00 -3.09490281E-13  2.94736457E-12
 -1.10918098E+00 -9.73399897E-05 -1.26803499E-16 -1.02731625E+00
Orbital Coefficients CCMAN2 Beta           R   N=          49
 -1.59695659E-01  2.29198467E-01 -7.84411446E-01 -1.66341647E-05  1.89544910E-01
  5.01009337E-16 -1.59695659E-01 -4.28887242E-01  6.74321710E-14 -3.84553500E-13
 -6.20583243E-01 -5.44614152E-05  2.61334164E-15  4.28887242E-01 -2.04633819E-01
 -1.06542903E-01  5.58063344E-01 -7.20607459E-05  8.21126136E-01  2.99716317E-14
 -2.04633819E-01  7.56106758E-15  3.01569435E-15 -1.68482496E-14  1.27065930E-15
 -2.41737771E-14  1.00000000E+00  5.72140319E-15 -9.43787801E-01 -1.53425709E-01
  1.22528888E+00  6.55187239E-05 -7.46580325E-01  9.06741011E-16 -9.43787801E-01
  1.02731625E+00 -3.09490281E-13  2.94736457E-12 -1.10918098E+00 -9.73399897E-05
 -1.26803499E-16 -1.02731625E+00 -8.13091703E-03  9.93702806E-01  3.09063504E-02
  5.36202768E-07 -6.10998548E-03  5.99048292E-16 -8.13091703E-03
Dipole_Data                                R   N=           3
  1.61043646E-04 -1.83507879E+00 -4.73849931E-16
Quadrupole_Data                            R   N=           6
 -4.46355461E+00  2.71135469E-05 -5.19049117E+00  8.22289844E-16 -3.13493680E-15
 -5.94849053E+00
Octapole_Data                              R   N=          10
 -2.25956661E-04 -1.58421358E-01 -1.81785764E-04  5.72341057E-01 -2.41320746E-17
 -3.24823285E-17 -2.57637770E-16 -1.42954822E-04  2.74057277E-01 -8.31964813E-17
Hexadecapole_Data                          R   N=          15
 -5.28511136E+00 -1.01295577E-04 -1.41303625E+00  2.35781399E-07 -4.11143204E+00
  3.44930583E-16 -3.49575340E-16  1.17609678E-16 -1.05969223E-15 -1.48035820E+00
 -1.69927149E-05 -1.22430501E+00  3.17979672E-16 -1.04654588E-15 -3.07632752E+00
Number of independent functions            I                7
Alpha MO coefficients                      R   N=          49
 -8.13091703E-03  9.93702806E-01  3.09063504E-02  5.36202768E-07 -6.10998548E-03
  5.99048292E-16 -8.13091703E-03 -1.59695659E-01  2.29198467E-01 -7.84411446E-01
 -1.66341647E-05  1.89544910E-01  5.01009337E-16 -1.59695659E-01 -4.28887242E-01
  6.74321710E-14 -3.84553500E-13 -6.20583243E-01 -5.44614152E-05  2.61334164E-15
  4.28887242E-01 -2.04633819E-01 -1.06542903E-01  5.58063344E-01 -7.20607459E-05
  8.21126136E-01  2.99716317E-14 -2.04633819E-01  7.56106758E-15  3.01569435E-15
 -1.68482496E-14  1.27065930E-15 -2.41737771E-14  1.00000000E+00  5.72140319E-15
 -9.43787801E-01 -1.53425709E-01  1.22528888E+00  6.55187239E-05 -7.46580325E-01
  9.06741011E-16 -9.43787801E-01  1.02731625E+00 -3.09490281E-13  2.94736457E-12
 -1.10918098E+00 -9.73399897E-05 -1.26803499E-16 -1.02731625E+00
Alpha Orbital Energies                     R   N=           7
 -2.02330573E+01 -1.36695083E+00 -7.14046688E-01 -4.71270041E-01 -4.10973507E-01
  7.73228472E-01  9.58070695E-01
Total SCF Density                          R   N=          28
  5.34677619E-01 -4.26067346E-02  2.10303275E+00 -1.07099586E-03 -4.20568245E-01
  1.88379144E+00  5.14022213E-01  8.80165158E-06 -5.41124393E-05  7.75918500E-01
 -3.92966384E-01 -1.00294079E-01  6.16606695E-01 -5.53483512E-05  1.40660830E+00