Jobname.Temp
SP        R                             STO-3G              
Number of atoms                            I                3
Charge                                     I                0
Multiplicity                               I                1
Number of electrons                        I               10
Number of alpha electrons                  I                5
Number of beta electrons                   I                5
Atomic numbers                             I   N=           3
           8           1           1
Current cartesian coordinates              R   N=           9
 -3.01988151E-17  1.79242626E-17  1.85107678E-01 -1.19534940E+00 -1.28463819E-16
 -7.40430712E-01  1.19534940E+00 -1.49302820E-17 -7.40430712E-01
Nuclear charges                            R   N=           3
  8.00000000E+00  1.00000000E+00  1.00000000E+00
Number of basis functions                  I                7
Number of contracted shells                I                4
Number of primitive shells                 I               12
Highest angular momentum                   I                1
Largest degree of contraction              I                3
Shell types                                I   N=           4
           0          -1           0           0
Number of primitives per shell             I   N=           4
           3           3           3           3
Shell to atom map                          I   N=           4
           1           1           2           3
Primitive exponents                        R   N=          12
  1.30709320E+02  2.38088610E+01  6.44360830E+00  5.03315130E+00  1.16959610E+00
  3.80389000E-01  3.42525091E+00  6.23913730E-01  1.68855400E-01  3.42525091E+00
  6.23913730E-01  1.68855400E-01
Contraction coefficients                   R   N=          12
  1.54328969E-01  5.35328136E-01  4.44634536E-01 -9.99672287E-02  3.99512825E-01
  7.00115461E-01  1.54328971E-01  5.35328142E-01  4.44634542E-01  1.54328971E-01
  5.35328142E-01  4.44634542E-01
P(S=P) Contraction coefficients            R   N=          12
  0.00000000E+00  0.00000000E+00  0.00000000E+00  1.55916268E-01  6.07683714E-01
  3.91957386E-01  0.00000000E+00  0.00000000E+00  0.00000000E+00  0.00000000E+00
  0.00000000E+00  0.00000000E+00
Coordinates of each shell                  R   N=          12
 -3.01988151E-17  1.79242626E-17  1.85107678E-01 -3.01988151E-17  1.79242626E-17
  1.85107678E-01 -1.19534940E+00 -1.28463819E-16 -7.40430712E-01  1.19534940E+00
 -1.49302820E-17 -7.40430712E-01
Overlap Matrix                             R   N=          28
  1.00000000E+00  2.36703937E-01  1.00000000E+00 -4.65187219E-34  0.00000000E+00
  1.00000000E+00 -1.71089259E-33  2.73941474E-33  0.00000000E+00  1.00000000E+00
 -7.83939325E-18  3.40695831E-17  0.00000000E+00  8.67961934E-50  1.00000000E+00
  7.78797763E-02  5.82739642E-01 -3.48227143E-01 -4.26455256E-17 -2.69626262E-01
  1.00000000E+00  7.78797763E-02  5.82739642E-01  3.48227143E-01 -9.57112978E-18
 -2.69626262E-01  3.55278627E-01  1.00000000E+00
Core Hamiltonian Matrix                    R   N=          28
 -3.29381980E+01 -7.66423620E+00 -9.52157331E+00  0.00000000E+00  0.00000000E+00
 -7.83322433E+00  0.00000000E+00  0.00000000E+00  0.00000000E+00 -7.60892916E+00
  2.72115026E-02  2.93475001E-01  0.00000000E+00  0.00000000E+00 -7.74339720E+00
 -2.53972430E+00 -4.85806589E+00  2.39498696E+00 -4.04348530E-17  1.97095217E+00
 -5.81617206E+00 -2.53972430E+00 -4.85806589E+00 -2.39498696E+00 -9.07497844E-18
  1.97095217E+00 -2.49962785E+00 -5.81617206E+00
Orbital Coefficients CCMAN2 Alpha          R   N=          49
 -9.93706650E-01 -3.08854523E-02  5.53497839E-16  7.80017969E-17  6.21169451E-03
  8.12268807E-03  8.12268807E-03 -2.28922792E-01  7.83692296E-01  1.14299584E-15
  7.87264055E-17 -1.92882134E-01  1.59153043E-01  1.59153043E-01  1.08114443E-01
 -5.65761820E-01 -9.35847508E-16  4.74000487E-15 -8.15505331E-01  2.06915270E-01
  2.06915270E-01 -5.48514115E-16  7.40148593E-16 -6.22018880E-01 -1.64449944E-16
  1.58548002E-15  4.31070418E-01 -4.31070418E-01 -4.97920029E-16  2.34407349E-15
  1.59803980E-16  1.00000000E+00  3.49833564E-15 -7.51409830E-16 -1.07956941E-15
 -1.52590276E-01  1.22088150E+00  4.09345680E-16  1.37794349E-16 -7.58733978E-01
 -9.42171401E-01 -9.42171401E-01 -1.70002901E-16  2.49800181E-16 -1.10276522E+00
  1.53568508E-16 -8.18789481E-16 -1.02827521E+00  1.02827521E+00
Orbital Coefficients CCMAN2 Beta           R   N=          49
 -2.28922792E-01  7.83692296E-01  1.14299584E-15  7.87264055E-17 -1.92882134E-01
  1.59153043E-01  1.59153043E-01  1.08114443E-01 -5.65761820E-01 -9.35847508E-16
  4.74000487E-15 -8.15505331E-01  2.06915270E-01  2.06915270E-01 -5.48514115E-16
  7.40148593E-16 -6.22018880E-01 -1.64449944E-16  1.58548002E-15  4.31070418E-01
 -4.31070418E-01 -4.97920029E-16  2.34407349E-15  1.59803980E-16  1.00000000E+00
  3.49833564E-15 -7.51409830E-16 -1.07956941E-15 -1.52590276E-01  1.22088150E+00
  4.09345680E-16  1.37794349E-16 -7.58733978E-01 -9.42171401E-01 -9.42171401E-01
 -1.70002901E-16  2.49800181E-16 -1.10276522E+00  1.53568508E-16 -8.18789481E-16
 -1.02827521E+00  1.02827521E+00 -9.93706650E-01 -3.08854523E-02  5.53497839E-16
  7.80017969E-17  6.21169451E-03  8.12268807E-03  8.12268807E-03
EOMEE transition A1 Excitation Energies    R   N=           1
  7.53845907E-01
Number of Active Occ                       I                8
Number of Active Vir                       I                4
Alpha Amplitudes                           R   N=           2
 -6.90020920E-01 -6.90020920E-01
Alpha J Indexes                            I   N=           2
           0           2
Alpha I Indexes                            I   N=           2
           4          22
EOMEE transition A2 Excitation Energies    R   N=           1
  7.59440884E-01
Number of Active Occ                       I                8
Number of Active Vir                       I                4
Alpha Amplitudes                           R   N=           2
 -6.98367672E-01 -6.98367672E-01
Alpha J Indexes                            I   N=           2
           0           2
Alpha I Indexes                            I   N=           2
          13          31
EOMEE transition B1 Excitation Energies    R   N=           1
  9.02206380E-01
Number of Active Occ                       I                8
Number of Active Vir                       I                4
Alpha Amplitudes                           R   N=           4
 -6.70011186E-01  1.90179564E-01 -6.70011186E-01  1.90179564E-01
Alpha J Indexes                            I   N=           2
           0           4
Alpha I Indexes                            I   N=           4
           5           8          23          26
EOMEE transition B2 Excitation Energies    R   N=           1
  6.52663025E-01
Number of Active Occ                       I                8
Number of Active Vir                       I                4
Alpha Amplitudes                           R   N=           2
 -6.96909573E-01 -6.96909573E-01
Alpha J Indexes                            I   N=           2
           0           2
Alpha I Indexes                            I   N=           2
          12          30
EOMEE transition A1 Excitation Energies    R   N=           1
  6.88078116E-01
Number of Active Occ                       I                8
Number of Active Vir                       I                4
Alpha Amplitudes                           R   N=           2
 -6.95703733E-01  6.95703733E-01
Alpha J Indexes                            I   N=           2
           0           2
Alpha I Indexes                            I   N=           2
           4          22
EOMEE transition A2 Excitation Energies    R   N=           1
  7.21532466E-01
Number of Active Occ                       I                8
Number of Active Vir                       I                4
Alpha Amplitudes                           R   N=           2
  7.00676943E-01 -7.00676943E-01
Alpha J Indexes                            I   N=           2
           0           2
Alpha I Indexes                            I   N=           2
          13          31
EOMEE transition B1 Excitation Energies    R   N=           1
  7.93556051E-01
Number of Active Occ                       I                8
Number of Active Vir                       I                4
Alpha Amplitudes                           R   N=           4
 -6.80969226E-01 -1.79551008E-01  6.80969226E-01  1.79551008E-01
Alpha J Indexes                            I   N=           2
           0           4
Alpha I Indexes                            I   N=           4
           5           8          23          26
EOMEE transition B2 Excitation Energies    R   N=           1
  5.80334550E-01
Number of Active Occ                       I                8
Number of Active Vir                       I                4
Alpha Amplitudes                           R   N=           2
 -7.00385811E-01  7.00385811E-01
Alpha J Indexes                            I   N=           2
           0           2
Alpha I Indexes                            I   N=           2
          12          30
Number of independent functions            I                7
Alpha MO coefficients                      R   N=          49
 -9.93706650E-01 -3.08854523E-02  5.53497839E-16  7.80017969E-17  6.21169451E-03
  8.12268807E-03  8.12268807E-03 -2.28922792E-01  7.83692296E-01  1.14299584E-15
  7.87264055E-17 -1.92882134E-01  1.59153043E-01  1.59153043E-01 -5.48514115E-16
  7.40148593E-16 -6.22018880E-01 -1.64449944E-16  1.58548002E-15  4.31070418E-01
 -4.31070418E-01  1.08114443E-01 -5.65761820E-01 -9.35847508E-16  4.74000487E-15
 -8.15505331E-01  2.06915270E-01  2.06915270E-01 -4.97920029E-16  2.34407349E-15
  1.59803980E-16  1.00000000E+00  3.49833564E-15 -7.51409830E-16 -1.07956941E-15
 -1.52590276E-01  1.22088150E+00  4.09345680E-16  1.37794349E-16 -7.58733978E-01
 -9.42171401E-01 -9.42171401E-01 -1.70002901E-16  2.49800181E-16 -1.10276522E+00
  1.53568508E-16 -8.18789481E-16 -1.02827521E+00  1.02827521E+00
Alpha Orbital Energies                     R   N=           7
 -2.02352494E+01 -1.37011553E+00 -7.10341912E-01 -4.75246932E-01 -4.12132867E-01
  7.75493266E-01  9.52559785E-01
Total SCF Density                          R   N=          28
  2.10344104E+00 -4.23189901E-01  1.89902465E+00 -1.15029231E-15  1.91810636E-15
  7.79044779E-01 -1.51396590E-16 -6.25596946E-16  5.19863662E-16  1.99868298E+00
 -1.00384723E-01  6.17535234E-01 -8.54616935E-16 -6.96645121E-16  1.39064783E+00
 -4.11708866E-02 -7.93255418E-03 -5.17749807E-01  3.83104387E-16 -3.95079174E-01
  5.40528406E-01 -4.11708866E-02 -7.93255418E-03  5.17749807E-01  1.55498313E-17
 -3.95079174E-01 -2.35749781E-01  5.40528406E-01
Pure Switching                             I                1
Dipole_Data                                R   N=           3
  8.99357780E-15  1.18697237E-15 -1.85103087E+00
Quadrupole_Data                            R   N=           6
 -4.51194221E+00 -2.25371474E-16 -5.94988355E+00 -3.32391938E-15  8.46523671E-16
 -5.38616710E+00
Octapole_Data                              R   N=          10
  1.10016473E-14  2.55709786E-17  1.86859288E-15  3.28621335E-16 -4.10440049E-01
 -7.96840662E-17 -7.63775689E-02  3.49613087E-15  2.06743158E-16 -3.72563565E-01
Hexadecapole_Data                          R   N=          15
 -5.27844730E+00 -1.00992157E-16 -1.47363715E+00 -1.38442287E-16 -3.07739376E+00
 -3.97056731E-15  1.01895204E-16 -7.47022203E-16  2.18475488E-16 -1.44726663E+00
 -3.67024728E-17 -1.22083340E+00 -2.61501340E-15  2.49057390E-16 -4.12531242E+00
