Jobname.Temp
SP        R                             STO-3G              
Number of atoms                            I                3
Charge                                     I                0
Multiplicity                               I                1
Number of electrons                        I               10
Number of alpha electrons                  I                5
Number of beta electrons                   I                5
Atomic numbers                             I   N=           3
           8           1           1
Current cartesian coordinates              R   N=           9
 -3.01988151E-17  1.79242626E-17  1.85107678E-01 -1.19534940E+00 -1.28463819E-16
 -7.40430712E-01  1.19534940E+00 -1.49302820E-17 -7.40430712E-01
Nuclear charges                            R   N=           3
  8.00000000E+00  1.00000000E+00  1.00000000E+00
Number of basis functions                  I                7
Number of contracted shells                I                4
Number of primitive shells                 I               12
Highest angular momentum                   I                1
Largest degree of contraction              I                3
Shell types                                I   N=           4
           0          -1           0           0
Number of primitives per shell             I   N=           4
           3           3           3           3
Shell to atom map                          I   N=           4
           1           1           2           3
Primitive exponents                        R   N=          12
  1.30709320E+02  2.38088610E+01  6.44360830E+00  5.03315130E+00  1.16959610E+00
  3.80389000E-01  3.42525091E+00  6.23913730E-01  1.68855400E-01  3.42525091E+00
  6.23913730E-01  1.68855400E-01
Contraction coefficients                   R   N=          12
  1.54328969E-01  5.35328136E-01  4.44634536E-01 -9.99672287E-02  3.99512825E-01
  7.00115461E-01  1.54328971E-01  5.35328142E-01  4.44634542E-01  1.54328971E-01
  5.35328142E-01  4.44634542E-01
P(S=P) Contraction coefficients            R   N=          12
  0.00000000E+00  0.00000000E+00  0.00000000E+00  1.55916268E-01  6.07683714E-01
  3.91957386E-01  0.00000000E+00  0.00000000E+00  0.00000000E+00  0.00000000E+00
  0.00000000E+00  0.00000000E+00
Coordinates of each shell                  R   N=          12
 -3.01988151E-17  1.79242626E-17  1.85107678E-01 -3.01988151E-17  1.79242626E-17
  1.85107678E-01 -1.19534940E+00 -1.28463819E-16 -7.40430712E-01  1.19534940E+00
 -1.49302820E-17 -7.40430712E-01
Overlap Matrix                             R   N=          28
  1.00000000E+00  2.36703937E-01  1.00000000E+00 -4.65187219E-34  0.00000000E+00
  1.00000000E+00 -1.71089259E-33  2.73941474E-33  0.00000000E+00  1.00000000E+00
 -7.83939325E-18  3.40695831E-17  0.00000000E+00  8.67961934E-50  1.00000000E+00
  7.78797763E-02  5.82739642E-01 -3.48227143E-01 -4.26455256E-17 -2.69626262E-01
  1.00000000E+00  7.78797763E-02  5.82739642E-01  3.48227143E-01 -9.57112978E-18
 -2.69626262E-01  3.55278627E-01  1.00000000E+00
Core Hamiltonian Matrix                    R   N=          28
 -3.29381980E+01 -7.66423620E+00 -9.52157331E+00  0.00000000E+00  0.00000000E+00
 -7.83322433E+00  0.00000000E+00  0.00000000E+00  0.00000000E+00 -7.60892916E+00
  2.72115026E-02  2.93475001E-01  0.00000000E+00  0.00000000E+00 -7.74339720E+00
 -2.53972430E+00 -4.85806589E+00  2.39498696E+00 -4.04348530E-17  1.97095217E+00
 -5.81617206E+00 -2.53972430E+00 -4.85806589E+00 -2.39498696E+00 -9.07497844E-18
  1.97095217E+00 -2.49962785E+00 -5.81617206E+00
Orbital Coefficients CCMAN2 Alpha          R   N=          49
 -9.93706650E-01 -3.08854523E-02  2.09148380E-16  1.33512948E-16  6.21169451E-03
  8.12268807E-03  8.12268807E-03 -2.28922792E-01  7.83692296E-01 -4.64672807E-16
 -3.22958970E-17 -1.92882134E-01  1.59153043E-01  1.59153043E-01  1.08114443E-01
 -5.65761820E-01 -1.19130850E-15  3.90733760E-15 -8.15505331E-01  2.06915270E-01
  2.06915270E-01  1.74979770E-16 -4.59360709E-16 -6.22018880E-01 -3.86494549E-16
  1.66883173E-15  4.31070418E-01 -4.31070418E-01 -3.70290345E-16  2.05845425E-15
 -3.29476158E-16  1.00000000E+00  2.72241554E-15 -4.70375162E-16 -1.05187348E-15
 -1.52590276E-01  1.22088150E+00 -1.31414380E-14  8.22831977E-17 -7.58733978E-01
 -9.42171401E-01 -9.42171401E-01  1.86656246E-15 -1.50712776E-14 -1.10276522E+00
  2.09079660E-16  8.77076189E-15 -1.02827521E+00  1.02827521E+00
Orbital Coefficients CCMAN2 Beta           R   N=          49
 -2.28922792E-01  7.83692296E-01 -4.64672807E-16 -3.22958970E-17 -1.92882134E-01
  1.59153043E-01  1.59153043E-01  1.08114443E-01 -5.65761820E-01 -1.19130850E-15
  3.90733760E-15 -8.15505331E-01  2.06915270E-01  2.06915270E-01  1.74979770E-16
 -4.59360709E-16 -6.22018880E-01 -3.86494549E-16  1.66883173E-15  4.31070418E-01
 -4.31070418E-01 -3.70290345E-16  2.05845425E-15 -3.29476158E-16  1.00000000E+00
  2.72241554E-15 -4.70375162E-16 -1.05187348E-15 -1.52590276E-01  1.22088150E+00
 -1.31414380E-14  8.22831977E-17 -7.58733978E-01 -9.42171401E-01 -9.42171401E-01
  1.86656246E-15 -1.50712776E-14 -1.10276522E+00  2.09079660E-16  8.77076189E-15
 -1.02827521E+00  1.02827521E+00 -9.93706650E-01 -3.08854523E-02  2.09148380E-16
  1.33512948E-16  6.21169451E-03  8.12268807E-03  8.12268807E-03
EOMEE transition A1 Excitation Energies    R   N=           1
  7.53799121E-01
Number of Active Occ                       I               10
Number of Active Vir                       I                4
Alpha Amplitudes                           R   N=           2
  6.90018304E-01  6.90018304E-01
Alpha J Indexes                            I   N=           2
           0           2
Alpha I Indexes                            I   N=           2
           8          30
EOMEE transition A2 Excitation Energies    R   N=           1
  7.59496178E-01
Number of Active Occ                       I               10
Number of Active Vir                       I                4
Alpha Amplitudes                           R   N=           2
 -6.98363108E-01 -6.98363108E-01
Alpha J Indexes                            I   N=           2
           0           2
Alpha I Indexes                            I   N=           2
          17          39
EOMEE transition B1 Excitation Energies    R   N=           1
  9.02185908E-01
Number of Active Occ                       I               10
Number of Active Vir                       I                4
Alpha Amplitudes                           R   N=           4
 -6.70055195E-01  1.90025516E-01 -6.70055195E-01  1.90025516E-01
Alpha J Indexes                            I   N=           2
           0           4
Alpha I Indexes                            I   N=           4
           9          12          31          34
EOMEE transition B2 Excitation Energies    R   N=           1
  6.52691491E-01
Number of Active Occ                       I               10
Number of Active Vir                       I                4
Alpha Amplitudes                           R   N=           2
  6.96913218E-01  6.96913218E-01
Alpha J Indexes                            I   N=           2
           0           2
Alpha I Indexes                            I   N=           2
          16          38
EOMEE transition A1 Excitation Energies    R   N=           1
  6.88043535E-01
Number of Active Occ                       I               10
Number of Active Vir                       I                4
Alpha Amplitudes                           R   N=           2
 -6.95694197E-01  6.95694197E-01
Alpha J Indexes                            I   N=           2
           0           2
Alpha I Indexes                            I   N=           2
           8          30
EOMEE transition A2 Excitation Energies    R   N=           1
  7.21555404E-01
Number of Active Occ                       I               10
Number of Active Vir                       I                4
Alpha Amplitudes                           R   N=           2
  7.00685861E-01 -7.00685861E-01
Alpha J Indexes                            I   N=           2
           0           2
Alpha I Indexes                            I   N=           2
          17          39
EOMEE transition B1 Excitation Energies    R   N=           1
  7.93565493E-01
Number of Active Occ                       I               10
Number of Active Vir                       I                4
Alpha Amplitudes                           R   N=           4
 -6.81003872E-01 -1.79414702E-01  6.81003872E-01  1.79414702E-01
Alpha J Indexes                            I   N=           2
           0           4
Alpha I Indexes                            I   N=           4
           9          12          31          34
EOMEE transition B2 Excitation Energies    R   N=           1
  5.80338221E-01
Number of Active Occ                       I               10
Number of Active Vir                       I                4
Alpha Amplitudes                           R   N=           2
  7.00389312E-01 -7.00389312E-01
Alpha J Indexes                            I   N=           2
           0           2
Alpha I Indexes                            I   N=           2
          16          38
Number of independent functions            I                7
Alpha MO coefficients                      R   N=          49
 -9.93706650E-01 -3.08854523E-02  2.09148380E-16  1.33512948E-16  6.21169451E-03
  8.12268807E-03  8.12268807E-03 -2.28922792E-01  7.83692296E-01 -4.64672807E-16
 -3.22958970E-17 -1.92882134E-01  1.59153043E-01  1.59153043E-01  1.74979770E-16
 -4.59360709E-16 -6.22018880E-01 -3.86494549E-16  1.66883173E-15  4.31070418E-01
 -4.31070418E-01  1.08114443E-01 -5.65761820E-01 -1.19130850E-15  3.90733760E-15
 -8.15505331E-01  2.06915270E-01  2.06915270E-01 -3.70290345E-16  2.05845425E-15
 -3.29476158E-16  1.00000000E+00  2.72241554E-15 -4.70375162E-16 -1.05187348E-15
 -1.52590276E-01  1.22088150E+00 -1.31414380E-14  8.22831977E-17 -7.58733978E-01
 -9.42171401E-01 -9.42171401E-01  1.86656246E-15 -1.50712776E-14 -1.10276522E+00
  2.09079660E-16  8.77076189E-15 -1.02827521E+00  1.02827521E+00
Alpha Orbital Energies                     R   N=           7
 -2.02352494E+01 -1.37011553E+00 -7.10341912E-01 -4.75246932E-01 -4.12132867E-01
  7.75493266E-01  9.52559785E-01
Total SCF Density                          R   N=          28
  2.10345599E+00 -4.23229004E-01  1.89889838E+00 -6.67660543E-16  1.11368690E-15
  7.78988452E-01 -1.37458798E-16 -4.20229579E-16 -1.85510183E-16  1.99868517E+00
 -1.00413777E-01  6.17579724E-01 -6.45788773E-17 -8.59165146E-16  1.39064653E+00
 -4.11569962E-02 -7.89246911E-03 -5.17765806E-01  3.66712630E-16 -3.95077392E-01
  5.40566049E-01 -4.11569962E-02 -7.89246911E-03  5.17765806E-01 -1.22808577E-16
 -3.95077392E-01 -2.35761246E-01  5.40566049E-01
Pure Switching                             I                1
Dipole_Data                                R   N=           3
  7.51151265E-16  8.08548438E-16 -1.85089904E+00
Quadrupole_Data                            R   N=           6
 -4.51215165E+00  3.87549012E-16 -5.94992162E+00 -2.63920267E-16  8.90997483E-16
 -5.38628206E+00
Octapole_Data                              R   N=          10
  2.86260982E-15  1.11547009E-17  3.49133469E-16  2.34915572E-16 -4.10344471E-01
 -2.99009948E-17 -7.63544173E-02  5.19953103E-16  1.97934268E-16 -3.72474411E-01
Hexadecapole_Data                          R   N=          15
 -5.27875433E+00  1.14985868E-16 -1.47368497E+00  7.33329565E-17 -3.07744337E+00
 -1.01910104E-15  1.03178884E-16 -1.76136217E-16  2.29789174E-16 -1.44735035E+00
  4.02809149E-17 -1.22086181E+00 -3.69226789E-16  2.62846686E-16 -4.12544177E+00
