Jobname.Temp
SP        R                             STO-3G              
Number of atoms                            I                2
Charge                                     I                0
Multiplicity                               I                1
Number of electrons                        I                4
Number of alpha electrons                  I                2
Number of beta electrons                   I                2
Atomic numbers                             I   N=           2
           3           1
Current cartesian coordinates              R   N=           6
  0.00000000E+00  0.00000000E+00 -4.72431531E-01  0.00000000E+00  0.00000000E+00
  1.41729459E+00
Nuclear charges                            R   N=           2
  3.00000000E+00  1.00000000E+00
Number of basis functions                  I                6
Number of contracted shells                I                3
Number of primitive shells                 I                9
Highest angular momentum                   I                1
Largest degree of contraction              I                3
Shell types                                I   N=           3
           0          -1           0
Number of primitives per shell             I   N=           3
           3           3           3
Shell to atom map                          I   N=           3
           1           1           2
Primitive exponents                        R   N=           9
  1.61195750E+01  2.93620070E+00  7.94650500E-01  6.36289700E-01  1.47860100E-01
  4.80887000E-02  3.42525091E+00  6.23913730E-01  1.68855400E-01
Contraction coefficients                   R   N=           9
  1.54328970E-01  5.35328141E-01  4.44634541E-01 -9.99672298E-02  3.99512829E-01
  7.00115469E-01  1.54328971E-01  5.35328142E-01  4.44634542E-01
P(S=P) Contraction coefficients            R   N=           9
  0.00000000E+00  0.00000000E+00  0.00000000E+00  1.55916265E-01  6.07683701E-01
  3.91957378E-01  0.00000000E+00  0.00000000E+00  0.00000000E+00
Coordinates of each shell                  R   N=           9
  0.00000000E+00  0.00000000E+00 -4.72431531E-01  0.00000000E+00  0.00000000E+00
 -4.72431531E-01  0.00000000E+00  0.00000000E+00  1.41729459E+00
Overlap Matrix                             R   N=          21
  1.00000000E+00  2.41136651E-01  1.00000000E+00  0.00000000E+00  0.00000000E+00
  1.00000000E+00  0.00000000E+00  0.00000000E+00  0.00000000E+00  1.00000000E+00
  1.02529298E-17 -1.55236766E-17  0.00000000E+00  0.00000000E+00  1.00000000E+00
  2.29386889E-01  5.36150691E-01  0.00000000E+00  0.00000000E+00  5.47590436E-01
  1.00000000E+00
Core Hamiltonian Matrix                    R   N=          21
 -4.93519323E+00 -1.11092770E+00 -1.46123870E+00  0.00000000E+00  0.00000000E+00
 -1.19816455E+00  0.00000000E+00  0.00000000E+00  0.00000000E+00 -1.19816455E+00
 -3.90564854E-02 -1.40589531E-01  0.00000000E+00  0.00000000E+00 -1.30529290E+00
 -1.09857227E+00 -1.12367255E+00  0.00000000E+00  0.00000000E+00 -1.05003156E+00
 -2.00532543E+00
Orbital Coefficients CCMAN2 Alpha          R   N=          36
  9.85307204E-01  1.84863995E-02 -1.77393184E-16  6.65713077E-16 -1.66252723E-02
  4.00395854E-02 -2.55706418E-01  3.87975242E-01  1.20524090E-16 -8.66000704E-16
  3.79135323E-01  5.46147080E-01  1.91866637E-01 -8.35681529E-01 -2.01692713E-16
 -3.60453459E-16  5.87901666E-01  1.39247824E-01 -1.07591961E-16  3.85900046E-16
 -1.00000000E+00 -1.19443875E-16 -1.99732138E-16 -6.58340954E-17  8.75213153E-17
  1.19938867E-16  2.58730661E-16 -1.00000000E+00 -5.55622539E-17 -6.18989305E-16
  1.29627147E-01  9.27776792E-01  5.58748847E-17  1.61144842E-19  1.12079024E+00
 -1.47241089E+00
Orbital Coefficients CCMAN2 Beta           R   N=          36
 -2.55706418E-01  3.87975242E-01  1.20524090E-16 -8.66000704E-16  3.79135323E-01
  5.46147080E-01  1.91866637E-01 -8.35681529E-01 -2.01692713E-16 -3.60453459E-16
  5.87901666E-01  1.39247824E-01 -1.07591961E-16  3.85900046E-16 -1.00000000E+00
 -1.19443875E-16 -1.99732138E-16 -6.58340954E-17  8.75213153E-17  1.19938867E-16
  2.58730661E-16 -1.00000000E+00 -5.55622539E-17 -6.18989305E-16  1.29627147E-01
  9.27776792E-01  5.58748847E-17  1.61144842E-19  1.12079024E+00 -1.47241089E+00
  9.85307204E-01  1.84863995E-02 -1.77393184E-16  6.65713077E-16 -1.66252723E-02
  4.00395854E-02
EOMEE transition A Excitation Energies     R   N=           3
  1.39989514E-01  1.98539399E-01  1.98539400E-01
Number of Active Occ                       I                4
Number of Active Vir                       I                8
Alpha Amplitudes                           R   N=           6
  6.77203230E-01  6.77203230E-01 -6.76589693E-01 -6.76589693E-01  6.76589693E-01
  6.76589693E-01
Alpha J Indexes                            I   N=           4
           0           2           4           6
Alpha I Indexes                            I   N=           6
           8          28          10          30           9          29
EOMEE transition A Excitation Energies     R   N=           3
  1.25514925E-01  1.65879085E-01  1.65879086E-01
Number of Active Occ                       I                4
Number of Active Vir                       I                8
Alpha Amplitudes                           R   N=           6
  6.87364009E-01 -6.87364009E-01  6.90233362E-01 -6.90233362E-01 -6.90233362E-01
  6.90233362E-01
Alpha J Indexes                            I   N=           4
           0           2           4           6
Alpha I Indexes                            I   N=           6
           8          28          10          30           9          29
Number of independent functions            I                6
Alpha MO coefficients                      R   N=          36
  9.85307204E-01  1.84863995E-02 -1.77393184E-16  6.65713077E-16 -1.66252723E-02
  4.00395854E-02 -2.55706418E-01  3.87975242E-01  1.20524090E-16 -8.66000704E-16
  3.79135323E-01  5.46147080E-01  1.91866637E-01 -8.35681529E-01 -2.01692713E-16
 -3.60453459E-16  5.87901666E-01  1.39247824E-01 -1.07591961E-16  3.85900046E-16
 -1.00000000E+00 -1.19443875E-16 -1.99732138E-16 -6.58340954E-17  8.75213153E-17
  1.19938867E-16  2.58730661E-16 -1.00000000E+00 -5.55622539E-17 -6.18989305E-16
  1.29627147E-01  9.27776792E-01  5.58748847E-17  1.61144842E-19  1.12079024E+00
 -1.47241089E+00
Alpha Orbital Energies                     R   N=           6
 -2.37089939E+00 -3.16657117E-01  7.68484250E-02  1.57938724E-01  1.57938725E-01
  6.12999229E-01
Total SCF Density                          R   N=          21
  2.07668349E+00 -1.73038106E-01  3.72774333E-01 -3.99914440E-16  7.88209228E-17
  2.67742485E-03  1.77083550E-15 -3.29642981E-16 -1.39019615E-18  2.67742485E-03
 -2.17399688E-01  3.16075140E-01  8.11372243E-17 -3.37182547E-16  2.72095908E-01
 -2.04369175E-01  3.96381414E-01  9.89441873E-17 -3.77098433E-16  3.54518557E-01
  6.37000013E-01
Pure Switching                             I                1
Dipole_Data                                R   N=           3
 -6.79599710E-16  2.67350786E-15 -4.72393444E+00
Quadrupole_Data                            R   N=           6
 -5.14101775E+00  8.78847111E-18 -5.14101775E+00 -5.03681889E-16  2.07548965E-15
 -6.12073746E+00
Octapole_Data                              R   N=          10
 -2.19181179E-15  3.00769094E-15 -7.30603931E-16  9.02307281E-15 -3.30818795E+00
 -2.19711778E-18 -3.30818795E+00 -5.44617459E-16  2.21571966E-15 -9.52491473E+00
Hexadecapole_Data                          R   N=          15
 -1.19500048E+01  2.32389841E-17 -3.98333492E+00  2.32389841E-17 -1.19500048E+01
 -1.01050112E-15  1.38369257E-15 -3.36833708E-16  4.15107771E-15 -5.31694117E+00
  8.29560749E-18 -5.31694117E+00 -1.12191707E-15  4.60753610E-15 -2.05307833E+01
