                  Welcome to Q-Chem
     A Quantum Leap Into The Future Of Chemistry


 Q-Chem 5.4 (devel), Q-Chem, Inc., Pleasanton, CA (2021)

 E. Epifanovsky,  A. T. B. Gilbert,  Xintian Feng,  Joonho Lee,  Yuezhi Mao,  
 N. Mardirossian,  P. Pokhilko,  A. White,  M. Wormit,  M. P. Coons,  
 A. L. Dempwolff,  Zhengting Gan,  D. Hait,  P. R. Horn,  L. D. Jacobson,  
 I. Kaliman,  J. Kussmann,  A. W. Lange,  Ka Un Lao,  D. S. Levine,  Jie Liu,  
 S. C. McKenzie,  A. F. Morrison,  K. Nanda,  F. Plasser,  D. R. Rehn,  
 M. L. Vidal,  Zhi-Qiang You,  Ying Zhu,  B. Alam,  B. Albrecht,  
 A. Aldossary,  E. Alguire,  J. H. Andersen,  D. Barton,  K. Begam,  A. Behn,  
 Y. A. Bernard,  E. J. Berquist,  H. Burton,  A. Carreras,  K. Carter-Fenk,  
 R. Chakraborty,  A. D. Chien,  K. D. Closser,  V. Cofer-Shabica,  
 S. Dasgupta,  Jia Deng,  M. de Wergifosse,  M. Diedenhofen,  Hainam Do,  
 S. Ehlert,  Po-Tung Fang,  S. Fatehi,  Qingguo Feng,  T. Friedhoff,  
 J. Gayvert,  Qinghui Ge,  G. Gidofalvi,  M. Goldey,  J. Gomes,  
 C. Gonzalez-Espinoza,  S. Gulania,  A. Gunina,  M. W. D. Hanson-Heine,  
 P. H. P. Harbach,  A. W. Hauser,  M. F. Herbst,  M. Hernandez Vera,  
 M. Hodecker,  Z. C. Holden,  S. Houck,  Xunkun Huang,  Kerwin Hui,  
 B. C. Huynh,  M. Ivanov,  Hyunjun Ji,  Hanjie Jiang,  B. Kaduk,  S. Kaehler,  
 K. Khistyaev,  Jaehoon Kim,  P. Klunzinger,  Z. Koczor-Benda,  
 Joong Hoon Koh,  D. Kosenkov,  L. Koulias,  T. Kowalczyk,  C. M. Krauter,  
 K. Kue,  A. Kunitsa,  T. Kus,  A. Landau,  K. V. Lawler,  D. Lefrancois,  
 S. Lehtola,  Rain Li,  Yi-Pei Li,  Jiashu Liang,  M. Liebenthal,  
 Hung-Hsuan Lin,  You-Sheng Lin,  Fenglai Liu,  Kuan-Yu Liu,  
 M. Loipersberger,  A. Luenser,  A. Manjanath,  P. Manohar,  E. Mansoor,  
 S. F. Manzer,  Shan-Ping Mao,  A. V. Marenich,  T. Markovich,  S. Mason,  
 S. A. Maurer,  P. F. McLaughlin,  M. F. S. J. Menger,  J.-M. Mewes,  
 S. A. Mewes,  P. Morgante,  J. W. Mullinax,  K. J. Oosterbaan,  G. Paran,  
 Alexander C. Paul,  Suranjan K. Paul,  F. Pavosevic,  Zheng Pei,  S. Prager,  
 E. I. Proynov,  E. Ramos,  B. Rana,  A. E. Rask,  A. Rettig,  R. M. Richard,  
 F. Rob,  E. Rossomme,  T. Scheele,  M. Scheurer,  M. Schneider,  
 N. Sergueev,  S. M. Sharada,  W. Skomorowski,  D. W. Small,  C. J. Stein,  
 Yu-Chuan Su,  E. J. Sundstrom,  Zhen Tao,  J. Thirman,  T. Tsuchimochi,  
 N. M. Tubman,  S. P. Veccham,  O. Vydrov,  J. Wenzel,  J. Witte,  A. Yamada,  
 Kun Yao,  S. Yeganeh,  S. R. Yost,  A. Zech,  Igor Ying Zhang,  Xing Zhang,  
 Yu Zhang,  D. Zuev,  A. Aspuru-Guzik,  A. T. Bell,  N. A. Besley,  
 K. B. Bravaya,  B. R. Brooks,  D. Casanova,  Jeng-Da Chai,  S. Coriani,  
 C. J. Cramer,  A. E. DePrince, III,  R. A. DiStasio Jr.,  A. Dreuw,  
 B. D. Dunietz,  T. R. Furlani,  W. A. Goddard III,  S. Grimme,  
 S. Hammes-Schiffer,  T. Head-Gordon,  W. J. Hehre,  Chao-Ping Hsu,  
 T.-C. Jagau,  Yousung Jung,  A. Klamt,  Jing Kong,  D. S. Lambrecht,  
 WanZhen Liang,  N. J. Mayhall,  C. W. McCurdy,  J. B. Neaton,  
 C. Ochsenfeld,  J. A. Parkhill,  R. Peverati,  V. A. Rassolov,  Yihan Shao,  
 L. V. Slipchenko,  T. Stauch,  R. P. Steele,  J. E. Subotnik,  
 A. J. W. Thom,  A. Tkatchenko,  D. G. Truhlar,  T. Van Voorhis,  
 T. A. Wesolowski,  K. B. Whaley,  H. L. Woodcock III,  P. M. Zimmerman,  
 S. Faraji,  P. M. W. Gill,  M. Head-Gordon,  J. M. Herbert,  A. I. Krylov

 Additional authors for Version 5.4.1: 
 S. Kotaru,  Shaozhi Li,  Xiangyuan Li,  F. Matz,  A. Molle,  Haisheng Ren,  
 Yingli Su,  Hung-Yi Tsai,  C. Utku,  Fang Wang

 Contributors to earlier versions of Q-Chem not listed above: 
 R. D. Adamson,  B. Austin,  R. Baer,  J. Baker,  G. J. O. Beran,  
 K. Brandhorst,  S. T. Brown,  E. F. C. Byrd,  A. K. Chakraborty,  
 G. K. L. Chan,  Chun-Min Chang,  Yunqing Chen,  C.-L. Cheng,  
 Siu Hung Chien,  D. M. Chipman,  D. L. Crittenden,  H. Dachsel,  
 R. J. Doerksen,  A. D. Dutoi,  R. G. Edgar,  J. Fosso-Tande,  
 L. Fusti-Molnar,  D. Ghosh,  A. Ghysels,  A. Golubeva-Zadorozhnaya,  
 J. Gonthier,  M. S. Gordon,  S. R. Gwaltney,  G. Hawkins,  J. E. Herr,  
 A. Heyden,  S. Hirata,  E. G. Hohenstein,  G. Kedziora,  F. J. Keil,  
 C. Kelley,  Jihan Kim,  R. A. King,  R. Z. Khaliullin,  P. P. Korambath,  
 W. Kurlancheek,  A. Laurent,  A. M. Lee,  M. S. Lee,  S. V. Levchenko,  
 Ching Yeh Lin,  D. Liotard,  E. Livshits,  R. C. Lochan,  I. Lotan,  
 L. A. Martinez-Martinez,  P. E. Maslen,  N. Nair,  D. P. O'Neill,  
 D. Neuhauser,  E. Neuscamman,  C. M. Oana,  R. Olivares-Amaya,  R. Olson,  
 T. M. Perrine,  B. Peters,  P. A. Pieniazek,  A. Prociuk,  Y. M. Rhee,  
 J. Ritchie,  M. A. Rohrdanz,  E. Rosta,  N. J. Russ,  H. F. Schaefer III,  
 M. W. Schmidt,  N. E. Schultz,  S. Sharma,  N. Shenvi,  C. D. Sherrill,  
 A. C. Simmonett,  A. Sodt,  T. Stein,  D. Stuck,  K. S. Thanthiriwatte,  
 V. Vanovschi,  L. Vogt,  Tao Wang,  A. Warshel,  M. A. Watson,  
 C. F. Williams,  Q. Wu,  X. Xu,  Jun Yang,  W. Zhang,  Yan Zhao

 Please cite Q-Chem as follows:
 Y. Shao et al., Mol. Phys. 113, 184-215 (2015)
 DOI: 10.1080/00268976.2014.952696

 Q-Chem 5.4.1 for Intel X86 EM64T Linux

 Parts of Q-Chem use Armadillo 9.900.5 (Nocturnal Misbehaviour).
 http://arma.sourceforge.net/

 Q-Chem begins on Thu Aug 11 11:18:40 2022  

orc34
 Host: 0

     Scratch files written to /scratch/yongbin/qchem47794//
 Processing $rem in /home/users/yongbin/software/yongbin_quantum/config/preferences:
 Processing $rem in /home/users/yongbin/.qchemrc:
 Core orbitals will be frozen

 Checking the input file for inconsistencies... 	...done.

--------------------------------------------------------------
User input:
--------------------------------------------------------------
$comment
Hydrogen molecule
$end

$molecule
0 1
H 0.0 0.0 0.0
H 0.0 0.0 0.9
$end

$rem
   print_qis = true
   BASIS                = 6-31g 
   SYMMETRY             = false
   CC_SYMMETRY          = false
   METHOD               = eom-ccsd
   EE_SINGLETS          = [3]  ! Compute two EOM-EE singlet excited states
   EE_TRIPLETS          = [3]  ! Compute two EOM-EE triplet excited states
   CC_REF_PROP          = true ! Compute ground state properties
   CC_EOM_PROP          = true ! Compute excited state properties
!   CC_OSFNO             = true
   GUI                  = 2
$end
--------------------------------------------------------------
 ----------------------------------------------------------------
             Standard Nuclear Orientation (Angstroms)
    I     Atom           X                Y                Z
 ----------------------------------------------------------------
    1      H       0.0000000000     0.0000000000    -0.4500000000
    2      H       0.0000000000     0.0000000000     0.4500000000
 ----------------------------------------------------------------
 Molecular Point Group                 D*h   NOp =***
 Largest Abelian Subgroup              D2h   NOp =  1
 Nuclear Repulsion Energy =           0.58797468 hartrees
 There are        1 alpha and        1 beta electrons
 Requested basis set is 6-31G
 There are 4 shells and 4 basis functions
 Total memory of 2000 MB is distributed as follows: 
   MEM_STATIC is set to 192 MB
   QALLOC/CCMAN JOB total memory use is  1808 MB
 Warning: actual memory use might exceed 2000 MB

 Total QAlloc Memory Limit   2000 MB
 Mega-Array Size       188 MB
 MEM_STATIC part       192 MB

                       Distance Matrix (Angstroms)
             H (  1)
   H (  2)  0.900000

 A cutoff of  1.0D-14 yielded     10 shell pairs
 There are        10 function pairs
 Smallest overlap matrix eigenvalue = 1.29E-01

 Scale SEOQF with 1.000000e+00/1.000000e+00/1.000000e+00

 Standard Electronic Orientation quadrupole field applied
 Nucleus-field energy     =    -0.0000000004 hartrees
 Guess from superposition of atomic densities
 Warning:  Energy on first SCF cycle will be non-variational
 SAD guess density has 2.000000 electrons

 -----------------------------------------------------------------------
  General SCF calculation program by
  Eric Jon Sundstrom, Paul Horn, Yuezhi Mao, Dmitri Zuev, Alec White,
  David Stuck, Shaama M.S., Shane Yost, Joonho Lee, David Small,
  Daniel Levine, Susi Lehtola, Hugh Burton, Evgeny Epifanovsky,
  Bang C. Huynh
 -----------------------------------------------------------------------
 Hartree-Fock
 using 16 threads for integral computing
 -------------------------------------------------------
 OpenMP Integral computing Module                
 Release: version 1.0, May 2013, Q-Chem Inc. Pittsburgh 
 -------------------------------------------------------
 A restricted SCF calculation will be
 performed using DIIS
 SCF converges when DIIS error is below 1.0e-08
 ---------------------------------------
  Cycle       Energy         DIIS error
 ---------------------------------------
    1      -0.8250603706      6.31e-02  
    2      -1.1109776981      1.45e-02  
    3      -1.1116863706      3.22e-05  
    4      -1.1116863741      1.62e-08  
    5      -1.1116863741      8.20e-12  Convergence criterion met
 ---------------------------------------
 SCF time:   CPU 0.51s  wall 1.00s 
 SCF   energy in the final basis set =       -1.1116863741
 Total energy in the final basis set =       -1.1116863741


 ------------------------------------------------------------------------------

   CCMAN2: suite of methods based on coupled cluster
           and equation of motion theories.

   Components:
   * libvmm-1.3-trunk
     by Evgeny Epifanovsky, Ilya Kaliman.
   * libtensor-2.5-trunk
     by Evgeny Epifanovsky, Michael Wormit, Dmitry Zuev, Sam Manzer, 
        Ilya Kaliman.
   * libcc-2.5-trunk
     by Evgeny Epifanovsky, Arik Landau, Tomasz Kus, Kirill Khistyaev, 
        Dmitry Zuev, Prashant Manohar, Xintian Feng, Anna Krylov, 
        Matthew Goldey, Alec White, Thomas Jagau, Kaushik Nanda, 
        Anastasia Gunina, Alexander Kunitsa, Joonho Lee.

   CCMAN original authors:
   Anna I. Krylov, C. David Sherrill, Steven R. Gwaltney,
   Edward F. C. Byrd (2000)
   Sergey V. Levchenko, Lyudmila V. Slipchenko, Tao Wang,
   Ana-Maria C. Cristian (2003)
   Piotr A. Pieniazek, C. Melania Oana, Evgeny Epifanovsky (2007)
   Prashant Manohar (2009)

 ------------------------------------------------------------------------------


 Allocating and initializing 1808MB of RAM...
 Calculation will run on 16 cores.


 Occupation and symmetry of molecular orbitals

 Point group: C1 (1 irreducible representation).

                           A     All 
 -------------------------------------
 All molecular orbitals:
  - Alpha                  4     4   
  - Beta                   4     4   
 -------------------------------------
 Alpha orbitals:
  - Frozen occupied        0     0   
  - Active occupied        1     1   
  - Active virtual         3     3   
  - Frozen virtual         0     0   
 -------------------------------------
 Beta orbitals:
  - Frozen occupied        0     0   
  - Active occupied        1     1   
  - Active virtual         3     3   
  - Frozen virtual         0     0   
 -------------------------------------

 Import integrals:   CPU 0.00 s  wall 0.00 s

 Import integrals:   CPU 0.16 s  wall 0.04 s

 Run QIS:   CPU 0.00 s  wall 0.01 s

 MP2 amplitudes:   CPU 0.00 s  wall 0.00 s

Running a double precision version
           CCSD T amplitudes will be solved using DIIS.

           Start     Size      MaxIter   EConv     TConv     
           3         7         100       1.00e-06  1.00e-04  
 ------------------------------------------------------------------------------
           Energy (a.u.)   Ediff      Tdiff       Comment
 ------------------------------------------------------------------------------
            -1.13085245                           
     1      -1.13694964   6.10e-03   1.18e-01     
     2      -1.13914249   2.19e-03   4.02e-02     
     3      -1.13999899   8.57e-04   1.60e-02     
     4      -1.14060090   6.02e-04   1.13e-02     Switched to DIIS steps.
     5      -1.14060230   1.40e-06   4.25e-04     
     6      -1.14060260   3.01e-07   2.15e-05     
 ------------------------------------------------------------------------------
            -1.14060260                           CCSD T converged.

End of double precision
 SCF energy                 = -1.11168637
 MP2 energy                 = -1.13085245
 CCSD correlation energy    = -0.02891623
 CCSD total energy          = -1.14060260

 CCSD  T1^2 = 0.0002  T2^2 = 0.0219  Leading amplitudes:

 Amplitude    Orbitals with energies
 0.0102496928       1 (A) A                   ->    3 (A) A                    
                   -0.5515                          0.8545                     
 0.0102496928       1 (A) B                   ->    3 (A) B                    
                   -0.5515                          0.8545                     

 Amplitude    Orbitals with energies
 -0.1120572144       1 (A) A       1 (A) B     ->    2 (A) A       2 (A) B      
                    -0.5515       -0.5515            0.1949        0.1949       
  0.1120572144       1 (A) A       1 (A) B     ->    2 (A) B       2 (A) A      
                    -0.5515       -0.5515            0.1949        0.1949       
  0.1120572144       1 (A) B       1 (A) A     ->    2 (A) A       2 (A) B      
                    -0.5515       -0.5515            0.1949        0.1949       
 -0.1120572144       1 (A) B       1 (A) A     ->    2 (A) B       2 (A) A      
                    -0.5515       -0.5515            0.1949        0.1949       

 Computing CCSD intermediates for later calculations in double precision
 Finished.

Running a double precision version
           CCSD Lambda amplitudes will be solved using DIIS.
           Start     Size      MaxIter   EConv     LConv     
           3         7         100       1.00e-06  1.00e-04  
 ------------------------------------------------------------------------------
            Enorm      Ldiff       Comment
 ------------------------------------------------------------------------------
     1     4.18e-03   4.11e-03     
     2     1.47e-03   1.44e-03     
     3     5.94e-04   5.61e-04     
     4     5.26e-05   3.75e-04     Switched to DIIS steps.
     5     2.77e-06   2.22e-05     
     6     1.69e-07   4.53e-07     
 ------------------------------------------------------------------------------
                                   CCSD Lambda converged.

 Computing density matrices in double precision...
 Computing density matrices... Done.
 Reference state properties
 Dipole moment (a.u.): 0.000000 (X -0.000000, Y -0.000000, Z 0.000000)
 R-squared (a.u.): 6.003075 (XX 1.650631, YY 1.650631, ZZ 2.701814)
 Gauge origin (a.u.): (0.000000, 0.000000, 0.000000)
 Angular momentum (a.u.) against gauge origin: 
 (X 0.000000i, Y 0.000000i, Z 0.000000i)
 Traces of the OPDMs: Tr(AA) 1.000000, Tr(BB) 1.000000
 Density matrix was written to a file for further analysis.

 CCSD calculation:   CPU 0.43 s  wall 0.31 s

        Solving for EOMEE-CCSD A singlet states.

Running a double precision version
        EOMEE-CCSD/MP2 right amplitudes will be solved using Davidson.
        Amplitudes will be solved using standard  algorithm.
     Hard-coded thresholds: 
     LinDepThresh=1.00e-15  NormThresh=1.00e-06  ReorthogonThresh=1.00e-02

      Roots     MaxVec    MaxIter   Precond   Conv      Shift    
      3         120       60        1         1.00e-05  0.00e+00  
 ------------------------------------------------------------------------------
      Iter ConvRoots NVecs ResNorm Current eigenvalues (eV)
 ------------------------------------------------------------------------------
      0    0      3     4.59e-02   14.4038   30.4868   39.6122   
      1    2      6     2.46e-03   14.0293*  29.2821   34.5877*  
      2    2      7     2.02e-04   14.0293*  29.0621   34.5877*  
      3    1      8     2.04e-04   14.0293*  25.0806   29.1621   
      4    3      9     2.01e-30   14.0293*  25.0608*  29.1632*  

     Davidson procedure converged

 EOMEE transition 1/A
 Total energy = -0.62503610 a.u.  Excitation energy = 14.02927820 eV.
 R0^2 = 0.0000  R1^2 = 0.9904  R2^2 = 0.0096  Res^2 = 1.41e-30
 Conv-d = yes

 Amplitude    Transitions between orbitals
 -0.7033599523       1 (A) A                   ->    2 (A) A                    
 -0.7033599523       1 (A) B                   ->    2 (A) B                    
 -0.0224678365       1 (A) A                   ->    4 (A) A                    
 -0.0224678365       1 (A) B                   ->    4 (A) B                    
 -0.0581018176       1 (A) A       1 (A) B     ->    2 (A) A       3 (A) B      
 -0.0581018176       1 (A) A       1 (A) B     ->    3 (A) A       2 (A) B      
  0.0581018176       1 (A) A       1 (A) B     ->    3 (A) B       2 (A) A      
  0.0581018176       1 (A) A       1 (A) B     ->    2 (A) B       3 (A) A      
  0.0581018176       1 (A) B       1 (A) A     ->    2 (A) A       3 (A) B      
  0.0581018176       1 (A) B       1 (A) A     ->    3 (A) A       2 (A) B      
 -0.0581018176       1 (A) B       1 (A) A     ->    2 (A) B       3 (A) A      
 -0.0581018176       1 (A) B       1 (A) A     ->    3 (A) B       2 (A) A      
 -0.0374720237       1 (A) A       1 (A) B     ->    3 (A) A       4 (A) B      
 -0.0374720237       1 (A) A       1 (A) B     ->    4 (A) A       3 (A) B      
  0.0374720237       1 (A) A       1 (A) B     ->    4 (A) B       3 (A) A      
  0.0374720237       1 (A) A       1 (A) B     ->    3 (A) B       4 (A) A      
  0.0374720237       1 (A) B       1 (A) A     ->    3 (A) A       4 (A) B      
  0.0374720237       1 (A) B       1 (A) A     ->    4 (A) A       3 (A) B      
 -0.0374720237       1 (A) B       1 (A) A     ->    3 (A) B       4 (A) A      
 -0.0374720237       1 (A) B       1 (A) A     ->    4 (A) B       3 (A) A      

              Summary of significant orbitals:

               Number  Type             Irrep      Energy
               1       Occ  Alpha       1 (A)     -0.5515
               1       Occ  Beta        1 (A)     -0.5515
               2       Vir  Alpha       2 (A)      0.1949
               3       Vir  Alpha       3 (A)      0.8545
               4       Vir  Alpha       4 (A)      1.2346
               2       Vir  Beta        2 (A)      0.1949
               3       Vir  Beta        3 (A)      0.8545
               4       Vir  Beta        4 (A)      1.2346


 EOMEE transition 2/A
 Total energy = -0.21963392 a.u.  Excitation energy = 25.06083238 eV.
 R0^2 = 0.0147  R1^2 = 0.0124  R2^2 = 0.9876  Res^2 = 7.47e-31
 Conv-d = yes

 Amplitude    Transitions between orbitals
 -0.0786595717       1 (A) A                   ->    3 (A) A                    
 -0.0786595717       1 (A) B                   ->    3 (A) B                    
  0.9691881169       1 (A) A       1 (A) B     ->    2 (A) A       2 (A) B      
 -0.9691881169       1 (A) A       1 (A) B     ->    2 (A) B       2 (A) A      
 -0.9691881169       1 (A) B       1 (A) A     ->    2 (A) A       2 (A) B      
  0.9691881169       1 (A) B       1 (A) A     ->    2 (A) B       2 (A) A      
 -0.1520031319       1 (A) A       1 (A) B     ->    2 (A) A       4 (A) B      
 -0.1520031319       1 (A) A       1 (A) B     ->    4 (A) A       2 (A) B      
  0.1520031319       1 (A) A       1 (A) B     ->    4 (A) B       2 (A) A      
  0.1520031319       1 (A) A       1 (A) B     ->    2 (A) B       4 (A) A      
  0.1520031319       1 (A) B       1 (A) A     ->    2 (A) A       4 (A) B      
  0.1520031319       1 (A) B       1 (A) A     ->    4 (A) A       2 (A) B      
 -0.1520031319       1 (A) B       1 (A) A     ->    2 (A) B       4 (A) A      
 -0.1520031319       1 (A) B       1 (A) A     ->    4 (A) B       2 (A) A      
 -0.0387690198       1 (A) A       1 (A) B     ->    3 (A) A       3 (A) B      
  0.0387690198       1 (A) A       1 (A) B     ->    3 (A) B       3 (A) A      
  0.0387690198       1 (A) B       1 (A) A     ->    3 (A) A       3 (A) B      
 -0.0387690198       1 (A) B       1 (A) A     ->    3 (A) B       3 (A) A      
 -0.0242238831       1 (A) A       1 (A) B     ->    4 (A) A       4 (A) B      
  0.0242238831       1 (A) A       1 (A) B     ->    4 (A) B       4 (A) A      
  0.0242238831       1 (A) B       1 (A) A     ->    4 (A) A       4 (A) B      
 -0.0242238831       1 (A) B       1 (A) A     ->    4 (A) B       4 (A) A      

              Summary of significant orbitals:

               Number  Type             Irrep      Energy
               1       Occ  Alpha       1 (A)     -0.5515
               1       Occ  Beta        1 (A)     -0.5515
               2       Vir  Alpha       2 (A)      0.1949
               3       Vir  Alpha       3 (A)      0.8545
               4       Vir  Alpha       4 (A)      1.2346
               2       Vir  Beta        2 (A)      0.1949
               3       Vir  Beta        3 (A)      0.8545
               4       Vir  Beta        4 (A)      1.2346


 EOMEE transition 3/A
 Total energy = -0.06887330 a.u.  Excitation energy = 29.16323763 eV.
 R0^2 = 0.0002  R1^2 = 0.9366  R2^2 = 0.0634  Res^2 = 3.87e-30
 Conv-d = yes

 Amplitude    Transitions between orbitals
 -0.6843425464       1 (A) A                   ->    3 (A) A                    
 -0.6843425464       1 (A) B                   ->    3 (A) B                    
 -0.1442614311       1 (A) A       1 (A) B     ->    2 (A) A       2 (A) B      
  0.1442614311       1 (A) A       1 (A) B     ->    2 (A) B       2 (A) A      
  0.1442614311       1 (A) B       1 (A) A     ->    2 (A) A       2 (A) B      
 -0.1442614311       1 (A) B       1 (A) A     ->    2 (A) B       2 (A) A      
  0.1228452900       1 (A) A       1 (A) B     ->    4 (A) A       4 (A) B      
 -0.1228452900       1 (A) A       1 (A) B     ->    4 (A) B       4 (A) A      
 -0.1228452900       1 (A) B       1 (A) A     ->    4 (A) A       4 (A) B      
  0.1228452900       1 (A) B       1 (A) A     ->    4 (A) B       4 (A) A      
 -0.1128263263       1 (A) A       1 (A) B     ->    2 (A) A       4 (A) B      
 -0.1128263263       1 (A) A       1 (A) B     ->    4 (A) A       2 (A) B      
  0.1128263263       1 (A) A       1 (A) B     ->    4 (A) B       2 (A) A      
  0.1128263263       1 (A) A       1 (A) B     ->    2 (A) B       4 (A) A      
  0.1128263263       1 (A) B       1 (A) A     ->    2 (A) A       4 (A) B      
  0.1128263263       1 (A) B       1 (A) A     ->    4 (A) A       2 (A) B      
 -0.1128263263       1 (A) B       1 (A) A     ->    2 (A) B       4 (A) A      
 -0.1128263263       1 (A) B       1 (A) A     ->    4 (A) B       2 (A) A      
 -0.0445945385       1 (A) A       1 (A) B     ->    3 (A) A       3 (A) B      
  0.0445945385       1 (A) A       1 (A) B     ->    3 (A) B       3 (A) A      
  0.0445945385       1 (A) B       1 (A) A     ->    3 (A) A       3 (A) B      
 -0.0445945385       1 (A) B       1 (A) A     ->    3 (A) B       3 (A) A      

              Summary of significant orbitals:

               Number  Type             Irrep      Energy
               1       Occ  Alpha       1 (A)     -0.5515
               1       Occ  Beta        1 (A)     -0.5515
               2       Vir  Alpha       2 (A)      0.1949
               3       Vir  Alpha       3 (A)      0.8545
               4       Vir  Alpha       4 (A)      1.2346
               2       Vir  Beta        2 (A)      0.1949
               3       Vir  Beta        3 (A)      0.8545
               4       Vir  Beta        4 (A)      1.2346


 EEs and amplitudes of EOMEE has be exported to fchk file
Running a double precision version
      EOM-CCSD/MP2 left amplitudes will be solved using Davidson.
        Amplitudes will be solved using MOM  algorithm.
     Hard-coded thresholds: 
     LinDepThresh=1.00e-15  NormThresh=1.00e-06  ReorthogonThresh=1.00e-02

      Roots     MaxVec    MaxIter   Precond   Conv      Shift    
      3         120       60        1         1.00e-05  0.00e+00  
 ------------------------------------------------------------------------------
      Iter ConvRoots NVecs ResNorm Current eigenvalues (eV)
 ------------------------------------------------------------------------------
      0    0      3     1.88e-04   14.0293   25.0608   29.1632   
      1    2      6     5.57e-06   14.0293*  25.0608   29.1632*  
      2    3      7     1.54e-06   14.0293*  25.0608*  29.1632*  

     Davidson procedure converged

 Excited state properties for  EOMEE-CCSD transition 1/A
 Dipole moment (a.u.): 0.000000 (X -0.000000, Y -0.000000, Z 0.000000)
 R-squared (a.u.): 9.926649 (XX 2.075362, YY 2.075362, ZZ 5.775926)
 Gauge origin (a.u.): (0.000000, 0.000000, 0.000000)
 Angular momentum (a.u.) against gauge origin: 
 (X 0.000000i, Y 0.000000i, Z 0.000000i)
 Traces of the OPDMs: Tr(AA) 1.000000, Tr(BB) 1.000000

 Excited state properties for  EOMEE-CCSD transition 2/A
 Dipole moment (a.u.): 0.000000 (X -0.000000, Y -0.000000, Z 0.000000)
 R-squared (a.u.): 11.892921 (XX 2.241181, YY 2.241181, ZZ 7.410559)
 Gauge origin (a.u.): (0.000000, 0.000000, 0.000000)
 Angular momentum (a.u.) against gauge origin: 
 (X 0.000000i, Y 0.000000i, Z 0.000000i)
 Traces of the OPDMs: Tr(AA) 1.000000, Tr(BB) 1.000000

 Excited state properties for  EOMEE-CCSD transition 3/A
 Dipole moment (a.u.): 0.000000 (X -0.000000, Y -0.000000, Z 0.000000)
 R-squared (a.u.): 8.609353 (XX 2.497472, YY 2.497472, ZZ 3.614410)
 Gauge origin (a.u.): (0.000000, 0.000000, 0.000000)
 Angular momentum (a.u.) against gauge origin: 
 (X 0.000000i, Y 0.000000i, Z 0.000000i)
 Traces of the OPDMs: Tr(AA) 1.000000, Tr(BB) 1.000000

        Solving for EOMEE-CCSD A triplet states.

Running a double precision version
        EOMEE-CCSD/MP2 right amplitudes will be solved using Davidson.
        Amplitudes will be solved using standard  algorithm.
     Hard-coded thresholds: 
     LinDepThresh=1.00e-15  NormThresh=1.00e-06  ReorthogonThresh=1.00e-02

      Roots     MaxVec    MaxIter   Precond   Conv      Shift    
      3         120       60        1         1.00e-05  0.00e+00  
 ------------------------------------------------------------------------------
      Iter ConvRoots NVecs ResNorm Current eigenvalues (eV)
 ------------------------------------------------------------------------------
      0    0      3     6.09e-03   8.5435   25.0408   33.5472   
      1    3      6     3.36e-31   8.3837*  24.8777*  33.2361*  

     Davidson procedure converged

 EOMEE transition 1/A
 Total energy = -0.83250884 a.u.  Excitation energy = 8.38365779 eV.
 R0^2 = 0.0000  R1^2 = 0.9956  R2^2 = 0.0044  Res^2 = 2.17e-31
 Conv-d = yes

 Amplitude    Transitions between orbitals
  0.6970211679       1 (A) A                   ->    2 (A) A                    
 -0.6970211679       1 (A) B                   ->    2 (A) B                    
 -0.1094323430       1 (A) A                   ->    4 (A) A                    
  0.1094323430       1 (A) B                   ->    4 (A) B                    
  0.0461139549       1 (A) A       1 (A) B     ->    2 (A) A       3 (A) B      
 -0.0461139549       1 (A) A       1 (A) B     ->    3 (A) A       2 (A) B      
 -0.0461139549       1 (A) A       1 (A) B     ->    3 (A) B       2 (A) A      
  0.0461139549       1 (A) A       1 (A) B     ->    2 (A) B       3 (A) A      
 -0.0461139549       1 (A) B       1 (A) A     ->    2 (A) A       3 (A) B      
  0.0461139549       1 (A) B       1 (A) A     ->    3 (A) A       2 (A) B      
 -0.0461139549       1 (A) B       1 (A) A     ->    2 (A) B       3 (A) A      
  0.0461139549       1 (A) B       1 (A) A     ->    3 (A) B       2 (A) A      
 -0.0077173122       1 (A) A       1 (A) B     ->    3 (A) A       4 (A) B      
  0.0077173122       1 (A) A       1 (A) B     ->    4 (A) A       3 (A) B      
  0.0077173122       1 (A) A       1 (A) B     ->    4 (A) B       3 (A) A      
 -0.0077173122       1 (A) A       1 (A) B     ->    3 (A) B       4 (A) A      
  0.0077173122       1 (A) B       1 (A) A     ->    3 (A) A       4 (A) B      
 -0.0077173122       1 (A) B       1 (A) A     ->    4 (A) A       3 (A) B      
  0.0077173122       1 (A) B       1 (A) A     ->    3 (A) B       4 (A) A      
 -0.0077173122       1 (A) B       1 (A) A     ->    4 (A) B       3 (A) A      

              Summary of significant orbitals:

               Number  Type             Irrep      Energy
               1       Occ  Alpha       1 (A)     -0.5515
               1       Occ  Beta        1 (A)     -0.5515
               2       Vir  Alpha       2 (A)      0.1949
               3       Vir  Alpha       3 (A)      0.8545
               4       Vir  Alpha       4 (A)      1.2346
               2       Vir  Beta        2 (A)      0.1949
               3       Vir  Beta        3 (A)      0.8545
               4       Vir  Beta        4 (A)      1.2346


 EOMEE transition 2/A
 Total energy = -0.22636391 a.u.  Excitation energy = 24.87770008 eV.
 R0^2 = 0.0000  R1^2 = 0.9920  R2^2 = 0.0080  Res^2 = 4.21e-31
 Conv-d = yes

 Amplitude    Transitions between orbitals
  0.7042902697       1 (A) A                   ->    3 (A) A                    
 -0.7042902697       1 (A) B                   ->    3 (A) B                    
 -0.0630493143       1 (A) A       1 (A) B     ->    2 (A) A       4 (A) B      
  0.0630493143       1 (A) A       1 (A) B     ->    4 (A) A       2 (A) B      
  0.0630493143       1 (A) A       1 (A) B     ->    4 (A) B       2 (A) A      
 -0.0630493143       1 (A) A       1 (A) B     ->    2 (A) B       4 (A) A      
  0.0630493143       1 (A) B       1 (A) A     ->    2 (A) A       4 (A) B      
 -0.0630493143       1 (A) B       1 (A) A     ->    4 (A) A       2 (A) B      
  0.0630493143       1 (A) B       1 (A) A     ->    2 (A) B       4 (A) A      
 -0.0630493143       1 (A) B       1 (A) A     ->    4 (A) B       2 (A) A      

              Summary of significant orbitals:

               Number  Type             Irrep      Energy
               1       Occ  Alpha       1 (A)     -0.5515
               1       Occ  Beta        1 (A)     -0.5515
               2       Vir  Alpha       2 (A)      0.1949
               3       Vir  Alpha       3 (A)      0.8545
               4       Vir  Alpha       4 (A)      1.2346
               2       Vir  Beta        2 (A)      0.1949
               3       Vir  Beta        3 (A)      0.8545
               4       Vir  Beta        4 (A)      1.2346


 EOMEE transition 3/A
 Total energy = 0.08080212 a.u.  Excitation energy = 33.23611297 eV.
 R0^2 = 0.0000  R1^2 = 0.9747  R2^2 = 0.0253  Res^2 = 3.69e-31
 Conv-d = yes

 Amplitude    Transitions between orbitals
 -0.6887334765       1 (A) A                   ->    4 (A) A                    
  0.6887334765       1 (A) B                   ->    4 (A) B                    
 -0.1139276397       1 (A) A                   ->    2 (A) A                    
  0.1139276397       1 (A) B                   ->    2 (A) B                    
  0.0867791217       1 (A) A       1 (A) B     ->    2 (A) A       3 (A) B      
 -0.0867791217       1 (A) A       1 (A) B     ->    3 (A) A       2 (A) B      
 -0.0867791217       1 (A) A       1 (A) B     ->    3 (A) B       2 (A) A      
  0.0867791217       1 (A) A       1 (A) B     ->    2 (A) B       3 (A) A      
 -0.0867791217       1 (A) B       1 (A) A     ->    2 (A) A       3 (A) B      
  0.0867791217       1 (A) B       1 (A) A     ->    3 (A) A       2 (A) B      
 -0.0867791217       1 (A) B       1 (A) A     ->    2 (A) B       3 (A) A      
  0.0867791217       1 (A) B       1 (A) A     ->    3 (A) B       2 (A) A      
  0.0716664168       1 (A) A       1 (A) B     ->    3 (A) A       4 (A) B      
 -0.0716664168       1 (A) A       1 (A) B     ->    4 (A) A       3 (A) B      
 -0.0716664168       1 (A) A       1 (A) B     ->    4 (A) B       3 (A) A      
  0.0716664168       1 (A) A       1 (A) B     ->    3 (A) B       4 (A) A      
 -0.0716664168       1 (A) B       1 (A) A     ->    3 (A) A       4 (A) B      
  0.0716664168       1 (A) B       1 (A) A     ->    4 (A) A       3 (A) B      
 -0.0716664168       1 (A) B       1 (A) A     ->    3 (A) B       4 (A) A      
  0.0716664168       1 (A) B       1 (A) A     ->    4 (A) B       3 (A) A      

              Summary of significant orbitals:

               Number  Type             Irrep      Energy
               1       Occ  Alpha       1 (A)     -0.5515
               1       Occ  Beta        1 (A)     -0.5515
               2       Vir  Alpha       2 (A)      0.1949
               3       Vir  Alpha       3 (A)      0.8545
               4       Vir  Alpha       4 (A)      1.2346
               2       Vir  Beta        2 (A)      0.1949
               3       Vir  Beta        3 (A)      0.8545
               4       Vir  Beta        4 (A)      1.2346


 EEs and amplitudes of EOMEE has be exported to fchk file
Running a double precision version
      EOM-CCSD/MP2 left amplitudes will be solved using Davidson.
        Amplitudes will be solved using MOM  algorithm.
     Hard-coded thresholds: 
     LinDepThresh=1.00e-15  NormThresh=1.00e-06  ReorthogonThresh=1.00e-02

      Roots     MaxVec    MaxIter   Precond   Conv      Shift    
      3         120       60        1         1.00e-05  0.00e+00  
 ------------------------------------------------------------------------------
      Iter ConvRoots NVecs ResNorm Current eigenvalues (eV)
 ------------------------------------------------------------------------------
      0    1      3     7.48e-05   8.3837   24.8777*  33.2361   
      1    3      5     2.86e-31   8.3837*  24.8777*  33.2361*  

     Davidson procedure converged

 Excited state properties for  EOMEE-CCSD transition 1/A
 Dipole moment (a.u.): 0.000000 (X -0.000000, Y -0.000000, Z 0.000000)
 R-squared (a.u.): 8.564602 (XX 1.809568, YY 1.809568, ZZ 4.945467)
 Gauge origin (a.u.): (0.000000, 0.000000, 0.000000)
 Angular momentum (a.u.) against gauge origin: 
 (X 0.000000i, Y 0.000000i, Z 0.000000i)
 Traces of the OPDMs: Tr(AA) 1.000000, Tr(BB) 1.000000

 Excited state properties for  EOMEE-CCSD transition 2/A
 Dipole moment (a.u.): 0.000000 (X -0.000000, Y -0.000000, Z 0.000000)
 R-squared (a.u.): 8.737475 (XX 2.627609, YY 2.627609, ZZ 3.482256)
 Gauge origin (a.u.): (0.000000, 0.000000, 0.000000)
 Angular momentum (a.u.) against gauge origin: 
 (X 0.000000i, Y 0.000000i, Z 0.000000i)
 Traces of the OPDMs: Tr(AA) 1.000000, Tr(BB) 1.000000

 Excited state properties for  EOMEE-CCSD transition 3/A
 Dipole moment (a.u.): 0.000000 (X -0.000000, Y -0.000000, Z 0.000000)
 R-squared (a.u.): 8.210422 (XX 1.754179, YY 1.754179, ZZ 4.702065)
 Gauge origin (a.u.): (0.000000, 0.000000, 0.000000)
 Angular momentum (a.u.) against gauge origin: 
 (X 0.000000i, Y 0.000000i, Z 0.000000i)
 Traces of the OPDMs: Tr(AA) 1.000000, Tr(BB) 1.000000

 EOMEE-CCSD calculation:   CPU 1.12 s  wall 0.85 s

 Total ccman2 time:   CPU 2.02 s  wall 1.30 s


 --------------------------------------------------------------

                    Orbital Energies (a.u.)
 --------------------------------------------------------------

 Alpha MOs
 -- Occupied --
 -0.5515
 -- Virtual --
  0.1949   0.8545   1.2346
 --------------------------------------------------------------

          Ground-State Mulliken Net Atomic Charges

     Atom                 Charge (a.u.)
  ----------------------------------------
      1 H                    -0.000000
      2 H                     0.000000
  ----------------------------------------
  Sum of atomic charges =     0.000000

 -----------------------------------------------------------------
                    Cartesian Multipole Moments
 -----------------------------------------------------------------
    Charge (ESU x 10^10)
                 0.0000
    Dipole Moment (Debye)
         X       0.0000      Y       0.0000      Z       0.0000
       Tot       0.0000
    Quadrupole Moments (Debye-Ang)
        XX      -2.2202     XY       0.0000     YY      -2.2202
        XZ       0.0000     YZ       0.0000     ZZ      -1.6887
    Octopole Moments (Debye-Ang^2)
       XXX       0.0000    XXY       0.0000    XYY       0.0000
       YYY       0.0000    XXZ       0.0000    XYZ       0.0000
       YYZ       0.0000    XZZ       0.0000    YZZ       0.0000
       ZZZ       0.0000
    Hexadecapole Moments (Debye-Ang^3)
      XXXX      -2.1733   XXXY       0.0000   XXYY      -0.7244
      XYYY       0.0000   YYYY      -2.1733   XXXZ       0.0000
      XXYZ       0.0000   XYYZ       0.0000   YYYZ       0.0000
      XXZZ      -1.0233   XYZZ       0.0000   YYZZ      -1.0233
      XZZZ       0.0000   YZZZ       0.0000   ZZZZ      -3.8446
 -----------------------------------------------------------------
 Total job time:  2.43s(wall), 3.62s(cpu) 
 Thu Aug 11 11:18:43 2022

        *************************************************************
        *                                                           *
        *  Thank you very much for using Q-Chem.  Have a nice day.  *
        *                                                           *
        *************************************************************


