Jobname.Temp
SP        R                             6-31G               
Number of atoms                            I                2
Charge                                     I                0
Multiplicity                               I                1
Number of electrons                        I                2
Number of alpha electrons                  I                1
Number of beta electrons                   I                1
Atomic numbers                             I   N=           2
           1           1
Current cartesian coordinates              R   N=           6
  0.00000000E+00  0.00000000E+00 -8.50376756E-01  0.00000000E+00  0.00000000E+00
  8.50376756E-01
Nuclear charges                            R   N=           2
  1.00000000E+00  1.00000000E+00
Number of basis functions                  I                4
Number of contracted shells                I                4
Number of primitive shells                 I                8
Highest angular momentum                   I                0
Largest degree of contraction              I                3
Shell types                                I   N=           4
           0           0           0           0
Number of primitives per shell             I   N=           4
           3           1           3           1
Shell to atom map                          I   N=           4
           1           1           2           2
Primitive exponents                        R   N=           8
  1.87311370E+01  2.82539370E+00  6.40121700E-01  1.61277800E-01  1.87311370E+01
  2.82539370E+00  6.40121700E-01  1.61277800E-01
Contraction coefficients                   R   N=           8
  3.34945995E-02  2.34726947E-01  8.13757318E-01  1.00000000E+00  3.34945995E-02
  2.34726947E-01  8.13757318E-01  1.00000000E+00
Coordinates of each shell                  R   N=          12
  0.00000000E+00  0.00000000E+00 -8.50376756E-01  0.00000000E+00  0.00000000E+00
 -8.50376756E-01  0.00000000E+00  0.00000000E+00  8.50376756E-01  0.00000000E+00
  0.00000000E+00  8.50376756E-01
Overlap Matrix                             R   N=          10
  1.00000000E+00  6.58292049E-01  1.00000000E+00  3.22979907E-01  4.50094191E-01
  1.00000000E+00  4.50094191E-01  7.91953137E-01  6.58292049E-01  1.00000000E+00
Core Hamiltonian Matrix                    R   N=          10
 -8.42995449E-01 -8.58878984E-01 -8.85818269E-01 -5.84971231E-01 -6.59337026E-01
 -8.42995449E-01 -6.59337026E-01 -7.79562223E-01 -8.58878984E-01 -8.85818269E-01
Orbital Coefficients CCMAN2 Alpha          R   N=          16
 -3.01811057E-01 -3.09931896E-01 -3.01811057E-01 -3.09931896E-01  1.52124932E-01
  1.38111794E+00 -1.52124932E-01 -1.38111794E+00 -8.32671632E-01  6.95039551E-01
 -8.32671632E-01  6.95039551E-01 -1.02161841E+00  1.25068511E+00  1.02161841E+00
 -1.25068511E+00
Orbital Coefficients CCMAN2 Beta           R   N=          16
  1.52124932E-01  1.38111794E+00 -1.52124932E-01 -1.38111794E+00 -8.32671632E-01
  6.95039551E-01 -8.32671632E-01  6.95039551E-01 -1.02161841E+00  1.25068511E+00
  1.02161841E+00 -1.25068511E+00 -3.01811057E-01 -3.09931896E-01 -3.01811057E-01
 -3.09931896E-01
EOMEE transition A Excitation Energies     R   N=           3
  5.15566509E-01  9.20968683E-01  1.07172931E+00
Number of Active Occ                       I                2
Number of Active Vir                       I                6
Alpha Amplitudes                           R   N=           4
 -7.03359952E-01 -7.03359952E-01 -6.84342546E-01 -6.84342546E-01
Alpha J Indexes                            I   N=           4
           0           2           2           4
Alpha I Indexes                            I   N=           4
           0           9           1          10
EOMEE transition A Excitation Energies     R   N=           3
  3.08093768E-01  9.14238694E-01  1.22140473E+00
Number of Active Occ                       I                2
Number of Active Vir                       I                6
Alpha Amplitudes                           R   N=          10
  6.97021168E-01 -1.09432343E-01 -6.97021168E-01  1.09432343E-01  7.04290270E-01
 -7.04290270E-01 -1.13927640E-01 -6.88733476E-01  1.13927640E-01  6.88733476E-01
Alpha J Indexes                            I   N=           4
           0           4           6          10
Alpha I Indexes                            I   N=          10
           0           2           9          11           1          10
           0           2           9          11
Number of independent functions            I                4
Alpha MO coefficients                      R   N=          16
 -3.01811057E-01 -3.09931896E-01 -3.01811057E-01 -3.09931896E-01  1.52124932E-01
  1.38111794E+00 -1.52124932E-01 -1.38111794E+00 -8.32671632E-01  6.95039551E-01
 -8.32671632E-01  6.95039551E-01 -1.02161841E+00  1.25068511E+00  1.02161841E+00
 -1.25068511E+00
Alpha Orbital Energies                     R   N=           4
 -5.51507817E-01  1.94853603E-01  8.54531289E-01  1.23464022E+00
Total SCF Density                          R   N=          10
  2.05728690E-01  1.96387999E-01  1.97391665E-01  1.75273916E-01  1.67228362E-01
  2.05728690E-01  1.67228362E-01  1.65630187E-01  1.96387999E-01  1.97391665E-01
Pure Switching                             I                1
Dipole_Data                                R   N=           3
  0.00000000E+00  0.00000000E+00  9.10219015E-15
Quadrupole_Data                            R   N=           6
 -2.22015456E+00  0.00000000E+00 -2.22015456E+00  0.00000000E+00  0.00000000E+00
 -1.68873413E+00
Octapole_Data                              R   N=          10
  0.00000000E+00  0.00000000E+00  0.00000000E+00  0.00000000E+00  3.81772119E-15
  0.00000000E+00  3.81772119E-15  0.00000000E+00  0.00000000E+00  1.35521694E-14
Hexadecapole_Data                          R   N=          15
 -2.17327268E+00  0.00000000E+00 -7.24424227E-01  0.00000000E+00 -2.17327268E+00
  0.00000000E+00  0.00000000E+00  0.00000000E+00  0.00000000E+00 -1.02326416E+00
  0.00000000E+00 -1.02326416E+00  0.00000000E+00  0.00000000E+00 -3.84456524E+00
