                  Welcome to Q-Chem
     A Quantum Leap Into The Future Of Chemistry


 Q-Chem 5.4 (devel), Q-Chem, Inc., Pleasanton, CA (2021)

 E. Epifanovsky,  A. T. B. Gilbert,  Xintian Feng,  Joonho Lee,  Yuezhi Mao,  
 N. Mardirossian,  P. Pokhilko,  A. White,  M. Wormit,  M. P. Coons,  
 A. L. Dempwolff,  Zhengting Gan,  D. Hait,  P. R. Horn,  L. D. Jacobson,  
 I. Kaliman,  J. Kussmann,  A. W. Lange,  Ka Un Lao,  D. S. Levine,  Jie Liu,  
 S. C. McKenzie,  A. F. Morrison,  K. Nanda,  F. Plasser,  D. R. Rehn,  
 M. L. Vidal,  Zhi-Qiang You,  Ying Zhu,  B. Alam,  B. Albrecht,  
 A. Aldossary,  E. Alguire,  J. H. Andersen,  D. Barton,  K. Begam,  A. Behn,  
 Y. A. Bernard,  E. J. Berquist,  H. Burton,  A. Carreras,  K. Carter-Fenk,  
 R. Chakraborty,  A. D. Chien,  K. D. Closser,  V. Cofer-Shabica,  
 S. Dasgupta,  Jia Deng,  M. de Wergifosse,  M. Diedenhofen,  Hainam Do,  
 S. Ehlert,  Po-Tung Fang,  S. Fatehi,  Qingguo Feng,  T. Friedhoff,  
 J. Gayvert,  Qinghui Ge,  G. Gidofalvi,  M. Goldey,  J. Gomes,  
 C. Gonzalez-Espinoza,  S. Gulania,  A. Gunina,  M. W. D. Hanson-Heine,  
 P. H. P. Harbach,  A. W. Hauser,  M. F. Herbst,  M. Hernandez Vera,  
 M. Hodecker,  Z. C. Holden,  S. Houck,  Xunkun Huang,  Kerwin Hui,  
 B. C. Huynh,  M. Ivanov,  Hyunjun Ji,  Hanjie Jiang,  B. Kaduk,  S. Kaehler,  
 K. Khistyaev,  Jaehoon Kim,  P. Klunzinger,  Z. Koczor-Benda,  
 Joong Hoon Koh,  D. Kosenkov,  L. Koulias,  T. Kowalczyk,  C. M. Krauter,  
 K. Kue,  A. Kunitsa,  T. Kus,  A. Landau,  K. V. Lawler,  D. Lefrancois,  
 S. Lehtola,  Rain Li,  Yi-Pei Li,  Jiashu Liang,  M. Liebenthal,  
 Hung-Hsuan Lin,  You-Sheng Lin,  Fenglai Liu,  Kuan-Yu Liu,  
 M. Loipersberger,  A. Luenser,  A. Manjanath,  P. Manohar,  E. Mansoor,  
 S. F. Manzer,  Shan-Ping Mao,  A. V. Marenich,  T. Markovich,  S. Mason,  
 S. A. Maurer,  P. F. McLaughlin,  M. F. S. J. Menger,  J.-M. Mewes,  
 S. A. Mewes,  P. Morgante,  J. W. Mullinax,  K. J. Oosterbaan,  G. Paran,  
 Alexander C. Paul,  Suranjan K. Paul,  F. Pavosevic,  Zheng Pei,  S. Prager,  
 E. I. Proynov,  E. Ramos,  B. Rana,  A. E. Rask,  A. Rettig,  R. M. Richard,  
 F. Rob,  E. Rossomme,  T. Scheele,  M. Scheurer,  M. Schneider,  
 N. Sergueev,  S. M. Sharada,  W. Skomorowski,  D. W. Small,  C. J. Stein,  
 Yu-Chuan Su,  E. J. Sundstrom,  Zhen Tao,  J. Thirman,  T. Tsuchimochi,  
 N. M. Tubman,  S. P. Veccham,  O. Vydrov,  J. Wenzel,  J. Witte,  A. Yamada,  
 Kun Yao,  S. Yeganeh,  S. R. Yost,  A. Zech,  Igor Ying Zhang,  Xing Zhang,  
 Yu Zhang,  D. Zuev,  A. Aspuru-Guzik,  A. T. Bell,  N. A. Besley,  
 K. B. Bravaya,  B. R. Brooks,  D. Casanova,  Jeng-Da Chai,  S. Coriani,  
 C. J. Cramer,  A. E. DePrince, III,  R. A. DiStasio Jr.,  A. Dreuw,  
 B. D. Dunietz,  T. R. Furlani,  W. A. Goddard III,  S. Grimme,  
 S. Hammes-Schiffer,  T. Head-Gordon,  W. J. Hehre,  Chao-Ping Hsu,  
 T.-C. Jagau,  Yousung Jung,  A. Klamt,  Jing Kong,  D. S. Lambrecht,  
 WanZhen Liang,  N. J. Mayhall,  C. W. McCurdy,  J. B. Neaton,  
 C. Ochsenfeld,  J. A. Parkhill,  R. Peverati,  V. A. Rassolov,  Yihan Shao,  
 L. V. Slipchenko,  T. Stauch,  R. P. Steele,  J. E. Subotnik,  
 A. J. W. Thom,  A. Tkatchenko,  D. G. Truhlar,  T. Van Voorhis,  
 T. A. Wesolowski,  K. B. Whaley,  H. L. Woodcock III,  P. M. Zimmerman,  
 S. Faraji,  P. M. W. Gill,  M. Head-Gordon,  J. M. Herbert,  A. I. Krylov

 Additional authors for Version 5.4.1: 
 S. Kotaru,  Shaozhi Li,  Xiangyuan Li,  F. Matz,  A. Molle,  Haisheng Ren,  
 Yingli Su,  Hung-Yi Tsai,  C. Utku,  Fang Wang

 Contributors to earlier versions of Q-Chem not listed above: 
 R. D. Adamson,  B. Austin,  R. Baer,  J. Baker,  G. J. O. Beran,  
 K. Brandhorst,  S. T. Brown,  E. F. C. Byrd,  A. K. Chakraborty,  
 G. K. L. Chan,  Chun-Min Chang,  Yunqing Chen,  C.-L. Cheng,  
 Siu Hung Chien,  D. M. Chipman,  D. L. Crittenden,  H. Dachsel,  
 R. J. Doerksen,  A. D. Dutoi,  R. G. Edgar,  J. Fosso-Tande,  
 L. Fusti-Molnar,  D. Ghosh,  A. Ghysels,  A. Golubeva-Zadorozhnaya,  
 J. Gonthier,  M. S. Gordon,  S. R. Gwaltney,  G. Hawkins,  J. E. Herr,  
 A. Heyden,  S. Hirata,  E. G. Hohenstein,  G. Kedziora,  F. J. Keil,  
 C. Kelley,  Jihan Kim,  R. A. King,  R. Z. Khaliullin,  P. P. Korambath,  
 W. Kurlancheek,  A. Laurent,  A. M. Lee,  M. S. Lee,  S. V. Levchenko,  
 Ching Yeh Lin,  D. Liotard,  E. Livshits,  R. C. Lochan,  I. Lotan,  
 L. A. Martinez-Martinez,  P. E. Maslen,  N. Nair,  D. P. O'Neill,  
 D. Neuhauser,  E. Neuscamman,  C. M. Oana,  R. Olivares-Amaya,  R. Olson,  
 T. M. Perrine,  B. Peters,  P. A. Pieniazek,  A. Prociuk,  Y. M. Rhee,  
 J. Ritchie,  M. A. Rohrdanz,  E. Rosta,  N. J. Russ,  H. F. Schaefer III,  
 M. W. Schmidt,  N. E. Schultz,  S. Sharma,  N. Shenvi,  C. D. Sherrill,  
 A. C. Simmonett,  A. Sodt,  T. Stein,  D. Stuck,  K. S. Thanthiriwatte,  
 V. Vanovschi,  L. Vogt,  Tao Wang,  A. Warshel,  M. A. Watson,  
 C. F. Williams,  Q. Wu,  X. Xu,  Jun Yang,  W. Zhang,  Yan Zhao

 Please cite Q-Chem as follows:
 Y. Shao et al., Mol. Phys. 113, 184-215 (2015)
 DOI: 10.1080/00268976.2014.952696

 Q-Chem 5.4.1 for Intel X86 EM64T Linux

 Parts of Q-Chem use Armadillo 9.900.5 (Nocturnal Misbehaviour).
 http://arma.sourceforge.net/

 Q-Chem begins on Thu Aug 11 11:18:24 2022  

orc41
 Host: 0

     Scratch files written to /scratch/yongbin/qchem18782//
 Processing $rem in /home/users/yongbin/software/yongbin_quantum/config/preferences:
 Processing $rem in /home/users/yongbin/.qchemrc:
 Core orbitals will be frozen

 Checking the input file for inconsistencies... 	...done.

--------------------------------------------------------------
User input:
--------------------------------------------------------------
$comment
Hydrogen molecule
$end

$molecule
0 1
H 0.0 0.0 0.0
H 0.0 0.0 1.6 
$end

$rem
   print_qis = true
   BASIS                = 6-31g 
   SYMMETRY             = false
   CC_SYMMETRY          = false
   METHOD               = eom-ccsd
   EE_SINGLETS          = [3]  ! Compute two EOM-EE singlet excited states
   EE_TRIPLETS          = [3]  ! Compute two EOM-EE triplet excited states
   CC_REF_PROP          = true ! Compute ground state properties
   CC_EOM_PROP          = true ! Compute excited state properties
!   CC_OSFNO             = true
   GUI                  = 2
$end
--------------------------------------------------------------
 ----------------------------------------------------------------
             Standard Nuclear Orientation (Angstroms)
    I     Atom           X                Y                Z
 ----------------------------------------------------------------
    1      H       0.0000000000     0.0000000000    -0.8000000000
    2      H       0.0000000000     0.0000000000     0.8000000000
 ----------------------------------------------------------------
 Molecular Point Group                 D*h   NOp =***
 Largest Abelian Subgroup              D2h   NOp =  1
 Nuclear Repulsion Energy =           0.33073576 hartrees
 There are        1 alpha and        1 beta electrons
 Requested basis set is 6-31G
 There are 4 shells and 4 basis functions
 Total memory of 2000 MB is distributed as follows: 
   MEM_STATIC is set to 192 MB
   QALLOC/CCMAN JOB total memory use is  1808 MB
 Warning: actual memory use might exceed 2000 MB

 Total QAlloc Memory Limit   2000 MB
 Mega-Array Size       188 MB
 MEM_STATIC part       192 MB

                       Distance Matrix (Angstroms)
             H (  1)
   H (  2)  1.600000

 A cutoff of  1.0D-14 yielded     10 shell pairs
 There are        10 function pairs
 Smallest overlap matrix eigenvalue = 2.32E-01

 Scale SEOQF with 1.000000e+00/1.000000e+00/1.000000e+00

 Standard Electronic Orientation quadrupole field applied
 Nucleus-field energy     =    -0.0000000014 hartrees
 Guess from superposition of atomic densities
 Warning:  Energy on first SCF cycle will be non-variational
 SAD guess density has 2.000000 electrons

 -----------------------------------------------------------------------
  General SCF calculation program by
  Eric Jon Sundstrom, Paul Horn, Yuezhi Mao, Dmitri Zuev, Alec White,
  David Stuck, Shaama M.S., Shane Yost, Joonho Lee, David Small,
  Daniel Levine, Susi Lehtola, Hugh Burton, Evgeny Epifanovsky,
  Bang C. Huynh
 -----------------------------------------------------------------------
 Hartree-Fock
 using 20 threads for integral computing
 -------------------------------------------------------
 OpenMP Integral computing Module                
 Release: version 1.0, May 2013, Q-Chem Inc. Pittsburgh 
 -------------------------------------------------------
 A restricted SCF calculation will be
 performed using DIIS
 SCF converges when DIIS error is below 1.0e-08
 ---------------------------------------
  Cycle       Energy         DIIS error
 ---------------------------------------
    1      -0.7168107066      4.09e-02  
    2      -0.9794603917      1.68e-03  
    3      -0.9794692543      3.01e-04  
    4      -0.9794695472      2.02e-08  
    5      -0.9794695472      1.32e-12  Convergence criterion met
 ---------------------------------------
 SCF time:   CPU 0.45s  wall 0.00s 
 SCF   energy in the final basis set =       -0.9794695472
 Total energy in the final basis set =       -0.9794695472


 ------------------------------------------------------------------------------

   CCMAN2: suite of methods based on coupled cluster
           and equation of motion theories.

   Components:
   * libvmm-1.3-trunk
     by Evgeny Epifanovsky, Ilya Kaliman.
   * libtensor-2.5-trunk
     by Evgeny Epifanovsky, Michael Wormit, Dmitry Zuev, Sam Manzer, 
        Ilya Kaliman.
   * libcc-2.5-trunk
     by Evgeny Epifanovsky, Arik Landau, Tomasz Kus, Kirill Khistyaev, 
        Dmitry Zuev, Prashant Manohar, Xintian Feng, Anna Krylov, 
        Matthew Goldey, Alec White, Thomas Jagau, Kaushik Nanda, 
        Anastasia Gunina, Alexander Kunitsa, Joonho Lee.

   CCMAN original authors:
   Anna I. Krylov, C. David Sherrill, Steven R. Gwaltney,
   Edward F. C. Byrd (2000)
   Sergey V. Levchenko, Lyudmila V. Slipchenko, Tao Wang,
   Ana-Maria C. Cristian (2003)
   Piotr A. Pieniazek, C. Melania Oana, Evgeny Epifanovsky (2007)
   Prashant Manohar (2009)

 ------------------------------------------------------------------------------


 Allocating and initializing 1808MB of RAM...
 Calculation will run on 20 cores.


 Occupation and symmetry of molecular orbitals

 Point group: C1 (1 irreducible representation).

                           A     All 
 -------------------------------------
 All molecular orbitals:
  - Alpha                  4     4   
  - Beta                   4     4   
 -------------------------------------
 Alpha orbitals:
  - Frozen occupied        0     0   
  - Active occupied        1     1   
  - Active virtual         3     3   
  - Frozen virtual         0     0   
 -------------------------------------
 Beta orbitals:
  - Frozen occupied        0     0   
  - Active occupied        1     1   
  - Active virtual         3     3   
  - Frozen virtual         0     0   
 -------------------------------------

 Import integrals:   CPU 0.00 s  wall 0.00 s

 Import integrals:   CPU 0.19 s  wall 0.02 s

 Run QIS:   CPU 0.00 s  wall 0.01 s

 MP2 amplitudes:   CPU 0.00 s  wall 0.00 s

Running a double precision version
           CCSD T amplitudes will be solved using DIIS.

           Start     Size      MaxIter   EConv     TConv     
           3         7         100       1.00e-06  1.00e-04  
 ------------------------------------------------------------------------------
           Energy (a.u.)   Ediff      Tdiff       Comment
 ------------------------------------------------------------------------------
            -1.01182256                           
     1      -1.02641238   1.46e-02   1.62e-01     
     2      -1.03435630   7.94e-03   8.04e-02     
     3      -1.03864787   4.29e-03   4.66e-02     
     4      -1.04356782   4.92e-03   5.29e-02     Switched to DIIS steps.
     5      -1.04333969   2.28e-04   1.02e-03     
     6      -1.04344524   1.06e-04   9.25e-04     
     7      -1.04343180   1.34e-05   1.74e-04     
     8      -1.04343174   5.86e-08   5.59e-07     
 ------------------------------------------------------------------------------
            -1.04343174                           CCSD T converged.

End of double precision
 SCF energy                 = -0.97946955
 MP2 energy                 = -1.01182256
 CCSD correlation energy    = -0.06396219
 CCSD total energy          = -1.04343174

 CCSD  T1^2 = 0.0025  T2^2 = 0.1344  Leading amplitudes:

 Amplitude    Orbitals with energies
 0.0354307621       1 (A) A                   ->    4 (A) A                    
                   -0.4234                          1.0501                     
 0.0354307621       1 (A) B                   ->    4 (A) B                    
                   -0.4234                          1.0501                     

 Amplitude    Orbitals with energies
 -0.3521664584       1 (A) A       1 (A) B     ->    2 (A) A       2 (A) B      
                    -0.4234       -0.4234            0.0348        0.0348       
  0.3521664584       1 (A) A       1 (A) B     ->    2 (A) B       2 (A) A      
                    -0.4234       -0.4234            0.0348        0.0348       
  0.3521664584       1 (A) B       1 (A) A     ->    2 (A) A       2 (A) B      
                    -0.4234       -0.4234            0.0348        0.0348       
 -0.3521664584       1 (A) B       1 (A) A     ->    2 (A) B       2 (A) A      
                    -0.4234       -0.4234            0.0348        0.0348       

 Computing CCSD intermediates for later calculations in double precision
 Finished.

Running a double precision version
           CCSD Lambda amplitudes will be solved using DIIS.
           Start     Size      MaxIter   EConv     LConv     
           3         7         100       1.00e-06  1.00e-04  
 ------------------------------------------------------------------------------
            Enorm      Ldiff       Comment
 ------------------------------------------------------------------------------
     1     4.74e-02   4.65e-02     
     2     2.06e-02   2.03e-02     
     3     1.07e-02   1.05e-02     
     4     2.93e-04   1.12e-02     Switched to DIIS steps.
     5     1.64e-05   8.51e-05     
     6     1.69e-06   6.45e-07     
     7     4.05e-07   7.03e-07     
 ------------------------------------------------------------------------------
                                   CCSD Lambda converged.

 Computing density matrices in double precision...
 Computing density matrices... Done.
 Reference state properties
 Dipole moment (a.u.): 0.000000 (X -0.000000, Y -0.000000, Z 0.000000)
 R-squared (a.u.): 9.813135 (XX 1.964476, YY 1.964476, ZZ 5.884184)
 Gauge origin (a.u.): (0.000000, 0.000000, 0.000000)
 Angular momentum (a.u.) against gauge origin: 
 (X 0.000000i, Y 0.000000i, Z 0.000000i)
 Traces of the OPDMs: Tr(AA) 1.000000, Tr(BB) 1.000000
 Density matrix was written to a file for further analysis.

 CCSD calculation:   CPU 0.54 s  wall 0.35 s

        Solving for EOMEE-CCSD A singlet states.

Running a double precision version
        EOMEE-CCSD/MP2 right amplitudes will be solved using Davidson.
        Amplitudes will be solved using standard  algorithm.
     Hard-coded thresholds: 
     LinDepThresh=1.00e-15  NormThresh=1.00e-06  ReorthogonThresh=1.00e-02

      Roots     MaxVec    MaxIter   Precond   Conv      Shift    
      3         120       60        1         1.00e-05  0.00e+00  
 ------------------------------------------------------------------------------
      Iter ConvRoots NVecs ResNorm Current eigenvalues (eV)
 ------------------------------------------------------------------------------
      0    0      3     7.71e-02   10.5491   32.7440   33.4071   
      1    2      6     2.79e-02   10.1641*  28.2682*  29.5794   
      2    2      7     2.16e-02   10.1641*  14.3620   28.2682*  
      3    2      8     6.37e-05   10.1641*  12.7293   28.2682*  
      4    3      9     1.51e-30   10.1641*  12.7290*  28.2682*  

     Davidson procedure converged

 EOMEE transition 1/A
 Total energy = -0.66990929 a.u.  Excitation energy = 10.16406269 eV.
 R0^2 = 0.0000  R1^2 = 0.9877  R2^2 = 0.0123  Res^2 = 6.68e-31
 Conv-d = yes

 Amplitude    Transitions between orbitals
  0.7026930017       1 (A) A                   ->    2 (A) A                    
  0.7026930017       1 (A) B                   ->    2 (A) B                    
 -0.0077664290       1 (A) A                   ->    3 (A) A                    
 -0.0077664290       1 (A) B                   ->    3 (A) B                    
 -0.0633969120       1 (A) A       1 (A) B     ->    2 (A) A       4 (A) B      
 -0.0633969120       1 (A) A       1 (A) B     ->    4 (A) A       2 (A) B      
  0.0633969120       1 (A) A       1 (A) B     ->    4 (A) B       2 (A) A      
  0.0633969120       1 (A) A       1 (A) B     ->    2 (A) B       4 (A) A      
  0.0633969120       1 (A) B       1 (A) A     ->    2 (A) A       4 (A) B      
  0.0633969120       1 (A) B       1 (A) A     ->    4 (A) A       2 (A) B      
 -0.0633969120       1 (A) B       1 (A) A     ->    2 (A) B       4 (A) A      
 -0.0633969120       1 (A) B       1 (A) A     ->    4 (A) B       2 (A) A      
 -0.0462931903       1 (A) A       1 (A) B     ->    3 (A) A       4 (A) B      
 -0.0462931903       1 (A) A       1 (A) B     ->    4 (A) A       3 (A) B      
  0.0462931903       1 (A) A       1 (A) B     ->    4 (A) B       3 (A) A      
  0.0462931903       1 (A) A       1 (A) B     ->    3 (A) B       4 (A) A      
  0.0462931903       1 (A) B       1 (A) A     ->    3 (A) A       4 (A) B      
  0.0462931903       1 (A) B       1 (A) A     ->    4 (A) A       3 (A) B      
 -0.0462931903       1 (A) B       1 (A) A     ->    3 (A) B       4 (A) A      
 -0.0462931903       1 (A) B       1 (A) A     ->    4 (A) B       3 (A) A      

              Summary of significant orbitals:

               Number  Type             Irrep      Energy
               1       Occ  Alpha       1 (A)     -0.4234
               1       Occ  Beta        1 (A)     -0.4234
               2       Vir  Alpha       2 (A)      0.0348
               3       Vir  Alpha       3 (A)      1.0107
               4       Vir  Alpha       4 (A)      1.0501
               2       Vir  Beta        2 (A)      0.0348
               3       Vir  Beta        3 (A)      1.0107
               4       Vir  Beta        4 (A)      1.0501


 EOMEE transition 2/A
 Total energy = -0.57565120 a.u.  Excitation energy = 12.72895589 eV.
 R0^2 = 0.1018  R1^2 = 0.0200  R2^2 = 0.9800  Res^2 = 1.11e-30
 Conv-d = yes

 Amplitude    Transitions between orbitals
  0.1000458447       1 (A) A                   ->    4 (A) A                    
  0.1000458447       1 (A) B                   ->    4 (A) B                    
 -0.9827825538       1 (A) A       1 (A) B     ->    2 (A) A       2 (A) B      
  0.9827825538       1 (A) A       1 (A) B     ->    2 (A) B       2 (A) A      
  0.9827825538       1 (A) B       1 (A) A     ->    2 (A) A       2 (A) B      
 -0.9827825538       1 (A) B       1 (A) A     ->    2 (A) B       2 (A) A      
 -0.0774534069       1 (A) A       1 (A) B     ->    2 (A) A       3 (A) B      
 -0.0774534069       1 (A) A       1 (A) B     ->    3 (A) A       2 (A) B      
  0.0774534069       1 (A) A       1 (A) B     ->    3 (A) B       2 (A) A      
  0.0774534069       1 (A) A       1 (A) B     ->    2 (A) B       3 (A) A      
  0.0774534069       1 (A) B       1 (A) A     ->    2 (A) A       3 (A) B      
  0.0774534069       1 (A) B       1 (A) A     ->    3 (A) A       2 (A) B      
 -0.0774534069       1 (A) B       1 (A) A     ->    2 (A) B       3 (A) A      
 -0.0774534069       1 (A) B       1 (A) A     ->    3 (A) B       2 (A) A      
  0.0342104429       1 (A) A       1 (A) B     ->    4 (A) A       4 (A) B      
 -0.0342104429       1 (A) A       1 (A) B     ->    4 (A) B       4 (A) A      
 -0.0342104429       1 (A) B       1 (A) A     ->    4 (A) A       4 (A) B      
  0.0342104429       1 (A) B       1 (A) A     ->    4 (A) B       4 (A) A      
  0.0308495546       1 (A) A       1 (A) B     ->    3 (A) A       3 (A) B      
 -0.0308495546       1 (A) A       1 (A) B     ->    3 (A) B       3 (A) A      
 -0.0308495546       1 (A) B       1 (A) A     ->    3 (A) A       3 (A) B      
  0.0308495546       1 (A) B       1 (A) A     ->    3 (A) B       3 (A) A      

              Summary of significant orbitals:

               Number  Type             Irrep      Energy
               1       Occ  Alpha       1 (A)     -0.4234
               1       Occ  Beta        1 (A)     -0.4234
               2       Vir  Alpha       2 (A)      0.0348
               3       Vir  Alpha       3 (A)      1.0107
               4       Vir  Alpha       4 (A)      1.0501
               2       Vir  Beta        2 (A)      0.0348
               3       Vir  Beta        3 (A)      1.0107
               4       Vir  Beta        4 (A)      1.0501


 EOMEE transition 3/A
 Total energy = -0.00459523 a.u.  Excitation energy = 28.26817912 eV.
 R0^2 = 0.0000  R1^2 = 0.7160  R2^2 = 0.2840  Res^2 = 2.75e-30
 Conv-d = yes

 Amplitude    Transitions between orbitals
 -0.5981123654       1 (A) A                   ->    3 (A) A                    
 -0.5981123654       1 (A) B                   ->    3 (A) B                    
  0.0160546170       1 (A) A                   ->    2 (A) A                    
  0.0160546170       1 (A) B                   ->    2 (A) B                    
  0.3728788627       1 (A) A       1 (A) B     ->    2 (A) A       4 (A) B      
  0.3728788627       1 (A) A       1 (A) B     ->    4 (A) A       2 (A) B      
 -0.3728788627       1 (A) A       1 (A) B     ->    4 (A) B       2 (A) A      
 -0.3728788627       1 (A) A       1 (A) B     ->    2 (A) B       4 (A) A      
 -0.3728788627       1 (A) B       1 (A) A     ->    2 (A) A       4 (A) B      
 -0.3728788627       1 (A) B       1 (A) A     ->    4 (A) A       2 (A) B      
  0.3728788627       1 (A) B       1 (A) A     ->    2 (A) B       4 (A) A      
  0.3728788627       1 (A) B       1 (A) A     ->    4 (A) B       2 (A) A      
  0.0544536622       1 (A) A       1 (A) B     ->    3 (A) A       4 (A) B      
  0.0544536622       1 (A) A       1 (A) B     ->    4 (A) A       3 (A) B      
 -0.0544536622       1 (A) A       1 (A) B     ->    4 (A) B       3 (A) A      
 -0.0544536622       1 (A) A       1 (A) B     ->    3 (A) B       4 (A) A      
 -0.0544536622       1 (A) B       1 (A) A     ->    3 (A) A       4 (A) B      
 -0.0544536622       1 (A) B       1 (A) A     ->    4 (A) A       3 (A) B      
  0.0544536622       1 (A) B       1 (A) A     ->    3 (A) B       4 (A) A      
  0.0544536622       1 (A) B       1 (A) A     ->    4 (A) B       3 (A) A      

              Summary of significant orbitals:

               Number  Type             Irrep      Energy
               1       Occ  Alpha       1 (A)     -0.4234
               1       Occ  Beta        1 (A)     -0.4234
               2       Vir  Alpha       2 (A)      0.0348
               3       Vir  Alpha       3 (A)      1.0107
               4       Vir  Alpha       4 (A)      1.0501
               2       Vir  Beta        2 (A)      0.0348
               3       Vir  Beta        3 (A)      1.0107
               4       Vir  Beta        4 (A)      1.0501


 EEs and amplitudes of EOMEE has be exported to fchk file
Running a double precision version
      EOM-CCSD/MP2 left amplitudes will be solved using Davidson.
        Amplitudes will be solved using MOM  algorithm.
     Hard-coded thresholds: 
     LinDepThresh=1.00e-15  NormThresh=1.00e-06  ReorthogonThresh=1.00e-02

      Roots     MaxVec    MaxIter   Precond   Conv      Shift    
      3         120       60        1         1.00e-05  0.00e+00  
 ------------------------------------------------------------------------------
      Iter ConvRoots NVecs ResNorm Current eigenvalues (eV)
 ------------------------------------------------------------------------------
      0    0      3     1.85e-03   10.1641   12.7290   28.2682   
      1    2      6     2.64e-05   10.1641*  12.7290   28.2682*  
      2    3      7     1.13e-06   10.1641*  12.7290*  28.2682*  

     Davidson procedure converged

 Excited state properties for  EOMEE-CCSD transition 1/A
 Dipole moment (a.u.): 0.000000 (X -0.000000, Y -0.000000, Z 0.000000)
 R-squared (a.u.): 12.448356 (XX 2.327075, YY 2.327075, ZZ 7.794206)
 Gauge origin (a.u.): (0.000000, 0.000000, 0.000000)
 Angular momentum (a.u.) against gauge origin: 
 (X 0.000000i, Y 0.000000i, Z 0.000000i)
 Traces of the OPDMs: Tr(AA) 1.000000, Tr(BB) 1.000000

 Excited state properties for  EOMEE-CCSD transition 2/A
 Dipole moment (a.u.): 0.000000 (X -0.000000, Y -0.000000, Z 0.000000)
 R-squared (a.u.): 13.096178 (XX 2.171958, YY 2.171958, ZZ 8.752261)
 Gauge origin (a.u.): (0.000000, 0.000000, 0.000000)
 Angular momentum (a.u.) against gauge origin: 
 (X 0.000000i, Y 0.000000i, Z 0.000000i)
 Traces of the OPDMs: Tr(AA) 1.000000, Tr(BB) 1.000000

 Excited state properties for  EOMEE-CCSD transition 3/A
 Dipole moment (a.u.): 0.000000 (X -0.000000, Y -0.000000, Z 0.000000)
 R-squared (a.u.): 12.759697 (XX 2.425746, YY 2.425746, ZZ 7.908205)
 Gauge origin (a.u.): (0.000000, 0.000000, 0.000000)
 Angular momentum (a.u.) against gauge origin: 
 (X 0.000000i, Y 0.000000i, Z 0.000000i)
 Traces of the OPDMs: Tr(AA) 1.000000, Tr(BB) 1.000000

        Solving for EOMEE-CCSD A triplet states.

Running a double precision version
        EOMEE-CCSD/MP2 right amplitudes will be solved using Davidson.
        Amplitudes will be solved using standard  algorithm.
     Hard-coded thresholds: 
     LinDepThresh=1.00e-15  NormThresh=1.00e-06  ReorthogonThresh=1.00e-02

      Roots     MaxVec    MaxIter   Precond   Conv      Shift    
      3         120       60        1         1.00e-05  0.00e+00  
 ------------------------------------------------------------------------------
      Iter ConvRoots NVecs ResNorm Current eigenvalues (eV)
 ------------------------------------------------------------------------------
      0    0      3     6.26e-03   2.1651   28.7554   29.3044   
      1    3      6     6.75e-31   2.0891*  27.7824*  28.1261*  

     Davidson procedure converged

 EOMEE transition 1/A
 Total energy = -0.96666043 a.u.  Excitation energy = 2.08905341 eV.
 R0^2 = 0.0000  R1^2 = 0.9988  R2^2 = 0.0012  Res^2 = 1.21e-32
 Conv-d = yes

 Amplitude    Transitions between orbitals
  0.7017639044       1 (A) A                   ->    2 (A) A                    
 -0.7017639044       1 (A) B                   ->    2 (A) B                    
  0.0833035187       1 (A) A                   ->    3 (A) A                    
 -0.0833035187       1 (A) B                   ->    3 (A) B                    
  0.0241676428       1 (A) A       1 (A) B     ->    2 (A) A       4 (A) B      
 -0.0241676428       1 (A) A       1 (A) B     ->    4 (A) A       2 (A) B      
 -0.0241676428       1 (A) A       1 (A) B     ->    4 (A) B       2 (A) A      
  0.0241676428       1 (A) A       1 (A) B     ->    2 (A) B       4 (A) A      
 -0.0241676428       1 (A) B       1 (A) A     ->    2 (A) A       4 (A) B      
  0.0241676428       1 (A) B       1 (A) A     ->    4 (A) A       2 (A) B      
 -0.0241676428       1 (A) B       1 (A) A     ->    2 (A) B       4 (A) A      
  0.0241676428       1 (A) B       1 (A) A     ->    4 (A) B       2 (A) A      
  0.0019675792       1 (A) A       1 (A) B     ->    3 (A) A       4 (A) B      
 -0.0019675792       1 (A) A       1 (A) B     ->    4 (A) A       3 (A) B      
 -0.0019675792       1 (A) A       1 (A) B     ->    4 (A) B       3 (A) A      
  0.0019675792       1 (A) A       1 (A) B     ->    3 (A) B       4 (A) A      
 -0.0019675792       1 (A) B       1 (A) A     ->    3 (A) A       4 (A) B      
  0.0019675792       1 (A) B       1 (A) A     ->    4 (A) A       3 (A) B      
 -0.0019675792       1 (A) B       1 (A) A     ->    3 (A) B       4 (A) A      
  0.0019675792       1 (A) B       1 (A) A     ->    4 (A) B       3 (A) A      

              Summary of significant orbitals:

               Number  Type             Irrep      Energy
               1       Occ  Alpha       1 (A)     -0.4234
               1       Occ  Beta        1 (A)     -0.4234
               2       Vir  Alpha       2 (A)      0.0348
               3       Vir  Alpha       3 (A)      1.0107
               4       Vir  Alpha       4 (A)      1.0501
               2       Vir  Beta        2 (A)      0.0348
               3       Vir  Beta        3 (A)      1.0107
               4       Vir  Beta        4 (A)      1.0501


 EOMEE transition 2/A
 Total energy = -0.02244608 a.u.  Excitation energy = 27.78243281 eV.
 R0^2 = 0.0000  R1^2 = 0.8719  R2^2 = 0.1281  Res^2 = 1.63e-30
 Conv-d = yes

 Amplitude    Transitions between orbitals
  0.6533744545       1 (A) A                   ->    3 (A) A                    
 -0.6533744545       1 (A) B                   ->    3 (A) B                    
 -0.0951598250       1 (A) A                   ->    2 (A) A                    
  0.0951598250       1 (A) B                   ->    2 (A) B                    
  0.2477959333       1 (A) A       1 (A) B     ->    2 (A) A       4 (A) B      
 -0.2477959333       1 (A) A       1 (A) B     ->    4 (A) A       2 (A) B      
 -0.2477959333       1 (A) A       1 (A) B     ->    4 (A) B       2 (A) A      
  0.2477959333       1 (A) A       1 (A) B     ->    2 (A) B       4 (A) A      
 -0.2477959333       1 (A) B       1 (A) A     ->    2 (A) A       4 (A) B      
  0.2477959333       1 (A) B       1 (A) A     ->    4 (A) A       2 (A) B      
 -0.2477959333       1 (A) B       1 (A) A     ->    2 (A) B       4 (A) A      
  0.2477959333       1 (A) B       1 (A) A     ->    4 (A) B       2 (A) A      
  0.0514160025       1 (A) A       1 (A) B     ->    3 (A) A       4 (A) B      
 -0.0514160025       1 (A) A       1 (A) B     ->    4 (A) A       3 (A) B      
 -0.0514160025       1 (A) A       1 (A) B     ->    4 (A) B       3 (A) A      
  0.0514160025       1 (A) A       1 (A) B     ->    3 (A) B       4 (A) A      
 -0.0514160025       1 (A) B       1 (A) A     ->    3 (A) A       4 (A) B      
  0.0514160025       1 (A) B       1 (A) A     ->    4 (A) A       3 (A) B      
 -0.0514160025       1 (A) B       1 (A) A     ->    3 (A) B       4 (A) A      
  0.0514160025       1 (A) B       1 (A) A     ->    4 (A) B       3 (A) A      

              Summary of significant orbitals:

               Number  Type             Irrep      Energy
               1       Occ  Alpha       1 (A)     -0.4234
               1       Occ  Beta        1 (A)     -0.4234
               2       Vir  Alpha       2 (A)      0.0348
               3       Vir  Alpha       3 (A)      1.0107
               4       Vir  Alpha       4 (A)      1.0501
               2       Vir  Beta        2 (A)      0.0348
               3       Vir  Beta        3 (A)      1.0107
               4       Vir  Beta        4 (A)      1.0501


 EOMEE transition 3/A
 Total energy = -0.00981520 a.u.  Excitation energy = 28.12613631 eV.
 R0^2 = 0.0000  R1^2 = 0.8189  R2^2 = 0.1811  Res^2 = 3.86e-31
 Conv-d = yes

 Amplitude    Transitions between orbitals
 -0.6398934155       1 (A) A                   ->    4 (A) A                    
  0.6398934155       1 (A) B                   ->    4 (A) B                    
 -0.3008926998       1 (A) A       1 (A) B     ->    2 (A) A       3 (A) B      
  0.3008926998       1 (A) A       1 (A) B     ->    3 (A) A       2 (A) B      
  0.3008926998       1 (A) A       1 (A) B     ->    3 (A) B       2 (A) A      
 -0.3008926998       1 (A) A       1 (A) B     ->    2 (A) B       3 (A) A      
  0.3008926998       1 (A) B       1 (A) A     ->    2 (A) A       3 (A) B      
 -0.3008926998       1 (A) B       1 (A) A     ->    3 (A) A       2 (A) B      
  0.3008926998       1 (A) B       1 (A) A     ->    2 (A) B       3 (A) A      
 -0.3008926998       1 (A) B       1 (A) A     ->    3 (A) B       2 (A) A      

              Summary of significant orbitals:

               Number  Type             Irrep      Energy
               1       Occ  Alpha       1 (A)     -0.4234
               1       Occ  Beta        1 (A)     -0.4234
               2       Vir  Alpha       2 (A)      0.0348
               3       Vir  Alpha       3 (A)      1.0107
               4       Vir  Alpha       4 (A)      1.0501
               2       Vir  Beta        2 (A)      0.0348
               3       Vir  Beta        3 (A)      1.0107
               4       Vir  Beta        4 (A)      1.0501


 EEs and amplitudes of EOMEE has be exported to fchk file
Running a double precision version
      EOM-CCSD/MP2 left amplitudes will be solved using Davidson.
        Amplitudes will be solved using MOM  algorithm.
     Hard-coded thresholds: 
     LinDepThresh=1.00e-15  NormThresh=1.00e-06  ReorthogonThresh=1.00e-02

      Roots     MaxVec    MaxIter   Precond   Conv      Shift    
      3         120       60        1         1.00e-05  0.00e+00  
 ------------------------------------------------------------------------------
      Iter ConvRoots NVecs ResNorm Current eigenvalues (eV)
 ------------------------------------------------------------------------------
      0    1      3     9.16e-04   2.0891   27.7824   28.1261*  
      1    3      5     5.33e-31   2.0891*  27.7824*  28.1261*  

     Davidson procedure converged

 Excited state properties for  EOMEE-CCSD transition 1/A
 Dipole moment (a.u.): 0.000000 (X -0.000000, Y -0.000000, Z 0.000000)
 R-squared (a.u.): 10.813864 (XX 1.862538, YY 1.862538, ZZ 7.088788)
 Gauge origin (a.u.): (0.000000, 0.000000, 0.000000)
 Angular momentum (a.u.) against gauge origin: 
 (X 0.000000i, Y 0.000000i, Z 0.000000i)
 Traces of the OPDMs: Tr(AA) 1.000000, Tr(BB) 1.000000

 Excited state properties for  EOMEE-CCSD transition 2/A
 Dipole moment (a.u.): 0.000000 (X -0.000000, Y -0.000000, Z 0.000000)
 R-squared (a.u.): 13.038572 (XX 2.406500, YY 2.406500, ZZ 8.225571)
 Gauge origin (a.u.): (0.000000, 0.000000, 0.000000)
 Angular momentum (a.u.) against gauge origin: 
 (X 0.000000i, Y 0.000000i, Z 0.000000i)
 Traces of the OPDMs: Tr(AA) 1.000000, Tr(BB) 1.000000

 Excited state properties for  EOMEE-CCSD transition 3/A
 Dipole moment (a.u.): 0.000000 (X -0.000000, Y -0.000000, Z 0.000000)
 R-squared (a.u.): 11.720834 (XX 2.477566, YY 2.477566, ZZ 6.765702)
 Gauge origin (a.u.): (0.000000, 0.000000, 0.000000)
 Angular momentum (a.u.) against gauge origin: 
 (X 0.000000i, Y 0.000000i, Z 0.000000i)
 Traces of the OPDMs: Tr(AA) 1.000000, Tr(BB) 1.000000

 EOMEE-CCSD calculation:   CPU 1.14 s  wall 0.76 s

 Total ccman2 time:   CPU 2.07 s  wall 1.72 s


 --------------------------------------------------------------

                    Orbital Energies (a.u.)
 --------------------------------------------------------------

 Alpha MOs
 -- Occupied --
 -0.4234
 -- Virtual --
  0.0348   1.0107   1.0501
 --------------------------------------------------------------

          Ground-State Mulliken Net Atomic Charges

     Atom                 Charge (a.u.)
  ----------------------------------------
      1 H                     0.000000
      2 H                     0.000000
  ----------------------------------------
  Sum of atomic charges =     0.000000

 -----------------------------------------------------------------
                    Cartesian Multipole Moments
 -----------------------------------------------------------------
    Charge (ESU x 10^10)
                 0.0000
    Dipole Moment (Debye)
         X       0.0000      Y       0.0000      Z      -0.0000
       Tot       0.0000
    Quadrupole Moments (Debye-Ang)
        XX      -2.6423     XY       0.0000     YY      -2.6423
        XZ       0.0000     YZ       0.0000     ZZ      -1.7663
    Octopole Moments (Debye-Ang^2)
       XXX       0.0000    XXY       0.0000    XYY       0.0000
       YYY       0.0000    XXZ       0.0000    XYZ       0.0000
       YYZ       0.0000    XZZ       0.0000    YZZ       0.0000
       ZZZ      -0.0000
    Hexadecapole Moments (Debye-Ang^3)
      XXXX      -2.8541   XXXY       0.0000   XXYY      -0.9514
      XYYY       0.0000   YYYY      -2.8541   XXXZ       0.0000
      XXYZ       0.0000   XYYZ       0.0000   YYYZ       0.0000
      XXZZ      -2.3223   XYZZ       0.0000   YYZZ      -2.3223
      XZZZ       0.0000   YZZZ       0.0000   ZZZZ     -10.4706
 -----------------------------------------------------------------
 Total job time:  3.50s(wall), 3.55s(cpu) 
 Thu Aug 11 11:18:27 2022

        *************************************************************
        *                                                           *
        *  Thank you very much for using Q-Chem.  Have a nice day.  *
        *                                                           *
        *************************************************************


