                  Welcome to Q-Chem
     A Quantum Leap Into The Future Of Chemistry


 Q-Chem 5.4 (devel), Q-Chem, Inc., Pleasanton, CA (2021)

 E. Epifanovsky,  A. T. B. Gilbert,  Xintian Feng,  Joonho Lee,  Yuezhi Mao,  
 N. Mardirossian,  P. Pokhilko,  A. White,  M. Wormit,  M. P. Coons,  
 A. L. Dempwolff,  Zhengting Gan,  D. Hait,  P. R. Horn,  L. D. Jacobson,  
 I. Kaliman,  J. Kussmann,  A. W. Lange,  Ka Un Lao,  D. S. Levine,  Jie Liu,  
 S. C. McKenzie,  A. F. Morrison,  K. Nanda,  F. Plasser,  D. R. Rehn,  
 M. L. Vidal,  Zhi-Qiang You,  Ying Zhu,  B. Alam,  B. Albrecht,  
 A. Aldossary,  E. Alguire,  J. H. Andersen,  D. Barton,  K. Begam,  A. Behn,  
 Y. A. Bernard,  E. J. Berquist,  H. Burton,  A. Carreras,  K. Carter-Fenk,  
 R. Chakraborty,  A. D. Chien,  K. D. Closser,  V. Cofer-Shabica,  
 S. Dasgupta,  Jia Deng,  M. de Wergifosse,  M. Diedenhofen,  Hainam Do,  
 S. Ehlert,  Po-Tung Fang,  S. Fatehi,  Qingguo Feng,  T. Friedhoff,  
 J. Gayvert,  Qinghui Ge,  G. Gidofalvi,  M. Goldey,  J. Gomes,  
 C. Gonzalez-Espinoza,  S. Gulania,  A. Gunina,  M. W. D. Hanson-Heine,  
 P. H. P. Harbach,  A. W. Hauser,  M. F. Herbst,  M. Hernandez Vera,  
 M. Hodecker,  Z. C. Holden,  S. Houck,  Xunkun Huang,  Kerwin Hui,  
 B. C. Huynh,  M. Ivanov,  Hyunjun Ji,  Hanjie Jiang,  B. Kaduk,  S. Kaehler,  
 K. Khistyaev,  Jaehoon Kim,  P. Klunzinger,  Z. Koczor-Benda,  
 Joong Hoon Koh,  D. Kosenkov,  L. Koulias,  T. Kowalczyk,  C. M. Krauter,  
 K. Kue,  A. Kunitsa,  T. Kus,  A. Landau,  K. V. Lawler,  D. Lefrancois,  
 S. Lehtola,  Rain Li,  Yi-Pei Li,  Jiashu Liang,  M. Liebenthal,  
 Hung-Hsuan Lin,  You-Sheng Lin,  Fenglai Liu,  Kuan-Yu Liu,  
 M. Loipersberger,  A. Luenser,  A. Manjanath,  P. Manohar,  E. Mansoor,  
 S. F. Manzer,  Shan-Ping Mao,  A. V. Marenich,  T. Markovich,  S. Mason,  
 S. A. Maurer,  P. F. McLaughlin,  M. F. S. J. Menger,  J.-M. Mewes,  
 S. A. Mewes,  P. Morgante,  J. W. Mullinax,  K. J. Oosterbaan,  G. Paran,  
 Alexander C. Paul,  Suranjan K. Paul,  F. Pavosevic,  Zheng Pei,  S. Prager,  
 E. I. Proynov,  E. Ramos,  B. Rana,  A. E. Rask,  A. Rettig,  R. M. Richard,  
 F. Rob,  E. Rossomme,  T. Scheele,  M. Scheurer,  M. Schneider,  
 N. Sergueev,  S. M. Sharada,  W. Skomorowski,  D. W. Small,  C. J. Stein,  
 Yu-Chuan Su,  E. J. Sundstrom,  Zhen Tao,  J. Thirman,  T. Tsuchimochi,  
 N. M. Tubman,  S. P. Veccham,  O. Vydrov,  J. Wenzel,  J. Witte,  A. Yamada,  
 Kun Yao,  S. Yeganeh,  S. R. Yost,  A. Zech,  Igor Ying Zhang,  Xing Zhang,  
 Yu Zhang,  D. Zuev,  A. Aspuru-Guzik,  A. T. Bell,  N. A. Besley,  
 K. B. Bravaya,  B. R. Brooks,  D. Casanova,  Jeng-Da Chai,  S. Coriani,  
 C. J. Cramer,  A. E. DePrince, III,  R. A. DiStasio Jr.,  A. Dreuw,  
 B. D. Dunietz,  T. R. Furlani,  W. A. Goddard III,  S. Grimme,  
 S. Hammes-Schiffer,  T. Head-Gordon,  W. J. Hehre,  Chao-Ping Hsu,  
 T.-C. Jagau,  Yousung Jung,  A. Klamt,  Jing Kong,  D. S. Lambrecht,  
 WanZhen Liang,  N. J. Mayhall,  C. W. McCurdy,  J. B. Neaton,  
 C. Ochsenfeld,  J. A. Parkhill,  R. Peverati,  V. A. Rassolov,  Yihan Shao,  
 L. V. Slipchenko,  T. Stauch,  R. P. Steele,  J. E. Subotnik,  
 A. J. W. Thom,  A. Tkatchenko,  D. G. Truhlar,  T. Van Voorhis,  
 T. A. Wesolowski,  K. B. Whaley,  H. L. Woodcock III,  P. M. Zimmerman,  
 S. Faraji,  P. M. W. Gill,  M. Head-Gordon,  J. M. Herbert,  A. I. Krylov

 Additional authors for Version 5.4.1: 
 S. Kotaru,  Shaozhi Li,  Xiangyuan Li,  F. Matz,  A. Molle,  Haisheng Ren,  
 Yingli Su,  Hung-Yi Tsai,  C. Utku,  Fang Wang

 Contributors to earlier versions of Q-Chem not listed above: 
 R. D. Adamson,  B. Austin,  R. Baer,  J. Baker,  G. J. O. Beran,  
 K. Brandhorst,  S. T. Brown,  E. F. C. Byrd,  A. K. Chakraborty,  
 G. K. L. Chan,  Chun-Min Chang,  Yunqing Chen,  C.-L. Cheng,  
 Siu Hung Chien,  D. M. Chipman,  D. L. Crittenden,  H. Dachsel,  
 R. J. Doerksen,  A. D. Dutoi,  R. G. Edgar,  J. Fosso-Tande,  
 L. Fusti-Molnar,  D. Ghosh,  A. Ghysels,  A. Golubeva-Zadorozhnaya,  
 J. Gonthier,  M. S. Gordon,  S. R. Gwaltney,  G. Hawkins,  J. E. Herr,  
 A. Heyden,  S. Hirata,  E. G. Hohenstein,  G. Kedziora,  F. J. Keil,  
 C. Kelley,  Jihan Kim,  R. A. King,  R. Z. Khaliullin,  P. P. Korambath,  
 W. Kurlancheek,  A. Laurent,  A. M. Lee,  M. S. Lee,  S. V. Levchenko,  
 Ching Yeh Lin,  D. Liotard,  E. Livshits,  R. C. Lochan,  I. Lotan,  
 L. A. Martinez-Martinez,  P. E. Maslen,  N. Nair,  D. P. O'Neill,  
 D. Neuhauser,  E. Neuscamman,  C. M. Oana,  R. Olivares-Amaya,  R. Olson,  
 T. M. Perrine,  B. Peters,  P. A. Pieniazek,  A. Prociuk,  Y. M. Rhee,  
 J. Ritchie,  M. A. Rohrdanz,  E. Rosta,  N. J. Russ,  H. F. Schaefer III,  
 M. W. Schmidt,  N. E. Schultz,  S. Sharma,  N. Shenvi,  C. D. Sherrill,  
 A. C. Simmonett,  A. Sodt,  T. Stein,  D. Stuck,  K. S. Thanthiriwatte,  
 V. Vanovschi,  L. Vogt,  Tao Wang,  A. Warshel,  M. A. Watson,  
 C. F. Williams,  Q. Wu,  X. Xu,  Jun Yang,  W. Zhang,  Yan Zhao

 Please cite Q-Chem as follows:
 Y. Shao et al., Mol. Phys. 113, 184-215 (2015)
 DOI: 10.1080/00268976.2014.952696

 Q-Chem 5.4.1 for Intel X86 EM64T Linux

 Parts of Q-Chem use Armadillo 9.900.5 (Nocturnal Misbehaviour).
 http://arma.sourceforge.net/

 Q-Chem begins on Tue May 24 17:49:00 2022  

orc22
 Host: 0

     Scratch files written to /scratch/yongbin/qchem26997//
 Processing $rem in /home/users/yongbin/software/yongbin_quantum/config/preferences:
 Processing $rem in /home/users/yongbin/.qchemrc:
 Core orbitals will be frozen

 Checking the input file for inconsistencies... 	...done.

--------------------------------------------------------------
User input:
--------------------------------------------------------------
$comment
Water molecule
$end

$molecule
0 1
  H    0.5355326   -0.0489506    0.7341984
  O    0.0563012    0.0114119   -0.1303093
  H   -0.9024750   -0.0253772    0.1144725
$end

$rem   
!   n_frozen_core = 0
!   print_qis = true
   JOBTYPE              = opt
   BASIS                = sto-3g
   SYMMETRY             = false
   CC_SYMMETRY          = false
   METHOD               = ccsd 
!   EE_SINGLETS          = [5]  ! Compute two EOM-EE singlet excited states
!   EE_TRIPLETS          = [5]  ! Compute two EOM-EE triplet excited states
!   CC_REF_PROP          = true ! Compute ground state properties
!   CC_EOM_PROP          = true ! Compute excited state properties
!   CC_OSFNO             = true 
   GUI                  = 2
$end

$opt
CONSTRAINT
stre  1  2  1.2 
stre  2  3  1.2 
ENDCONSTRAINT
$end
--------------------------------------------------------------
 ----------------------------------------------------------------
             Standard Nuclear Orientation (Angstroms)
    I     Atom           X                Y                Z
 ----------------------------------------------------------------
    1      H       0.7830968994    -0.4849023445    -0.0000000000
    2      O      -0.0000192066     0.1212404556     0.0000000000
    3      H      -0.7829432469    -0.4850213000     0.0000000000
 ----------------------------------------------------------------
 Molecular Point Group                 Cs    NOp =  2
 Largest Abelian Subgroup              Cs    NOp =  2
 Nuclear Repulsion Energy =           8.88807894 hartrees
 There are        5 alpha and        5 beta electrons
 Requested basis set is STO-3G
 There are 4 shells and 7 basis functions
 Total memory of 2000 MB is distributed as follows: 
   MEM_STATIC is set to 192 MB
   QALLOC/CCMAN JOB total memory use is  1808 MB
 Warning: actual memory use might exceed 2000 MB

 Total QAlloc Memory Limit   2000 MB
 Mega-Array Size       188 MB
 MEM_STATIC part       192 MB
 A cutoff of  1.0D-14 yielded     10 shell pairs
 There are        34 function pairs
 Smallest overlap matrix eigenvalue = 3.64E-01

 Scale SEOQF with 1.000000e+00/1.000000e+00/1.000000e+00

 Standard Electronic Orientation quadrupole field applied
 Nucleus-field energy     =     0.0000000009 hartrees
 Guess from superposition of atomic densities
 Warning:  Energy on first SCF cycle will be non-variational
 SAD guess density has 10.000000 electrons

 -----------------------------------------------------------------------
  General SCF calculation program by
  Eric Jon Sundstrom, Paul Horn, Yuezhi Mao, Dmitri Zuev, Alec White,
  David Stuck, Shaama M.S., Shane Yost, Joonho Lee, David Small,
  Daniel Levine, Susi Lehtola, Hugh Burton, Evgeny Epifanovsky,
  Bang C. Huynh
 -----------------------------------------------------------------------
 Hartree-Fock
 using 12 threads for integral computing
 -------------------------------------------------------
 OpenMP Integral computing Module                
 Release: version 1.0, May 2013, Q-Chem Inc. Pittsburgh 
 -------------------------------------------------------
 A restricted SCF calculation will be
 performed using DIIS
 SCF converges when DIIS error is below 1.0e-08
 ---------------------------------------
  Cycle       Energy         DIIS error
 ---------------------------------------
    1     -74.6006868406      3.98e-01  
    2     -74.9234657244      6.71e-02  
    3     -74.9644899702      8.35e-03  
    4     -74.9649808126      1.59e-03  
    5     -74.9650040578      1.39e-05  
    6     -74.9650040609      5.21e-06  
    7     -74.9650040615      9.63e-08  
    8     -74.9650040615      1.66e-10  Convergence criterion met
 ---------------------------------------
 SCF time:   CPU 0.88s  wall 1.00s 
 SCF   energy in the final basis set =      -74.9650040615
 Total energy in the final basis set =      -74.9650040615


 ------------------------------------------------------------------------------

   CCMAN2: suite of methods based on coupled cluster
           and equation of motion theories.

   Components:
   * libvmm-1.3-trunk
     by Evgeny Epifanovsky, Ilya Kaliman.
   * libtensor-2.5-trunk
     by Evgeny Epifanovsky, Michael Wormit, Dmitry Zuev, Sam Manzer, 
        Ilya Kaliman.
   * libcc-2.5-trunk
     by Evgeny Epifanovsky, Arik Landau, Tomasz Kus, Kirill Khistyaev, 
        Dmitry Zuev, Prashant Manohar, Xintian Feng, Anna Krylov, 
        Matthew Goldey, Alec White, Thomas Jagau, Kaushik Nanda, 
        Anastasia Gunina, Alexander Kunitsa, Joonho Lee.

   CCMAN original authors:
   Anna I. Krylov, C. David Sherrill, Steven R. Gwaltney,
   Edward F. C. Byrd (2000)
   Sergey V. Levchenko, Lyudmila V. Slipchenko, Tao Wang,
   Ana-Maria C. Cristian (2003)
   Piotr A. Pieniazek, C. Melania Oana, Evgeny Epifanovsky (2007)
   Prashant Manohar (2009)

 ------------------------------------------------------------------------------


 Allocating and initializing 1808MB of RAM...
 Calculation will run on 12 cores.


 Occupation and symmetry of molecular orbitals

 Point group: C1 (1 irreducible representation).

                           A     All 
 -------------------------------------
 All molecular orbitals:
  - Alpha                  7     7   
  - Beta                   7     7   
 -------------------------------------
 Alpha orbitals:
  - Frozen occupied        1     1   
  - Active occupied        4     4   
  - Active virtual         2     2   
  - Frozen virtual         0     0   
 -------------------------------------
 Beta orbitals:
  - Frozen occupied        1     1   
  - Active occupied        4     4   
  - Active virtual         2     2   
  - Frozen virtual         0     0   
 -------------------------------------

 Import integrals:   CPU 0.00 s  wall 0.00 s

 Import integrals:   CPU 0.17 s  wall 0.13 s

 MP2 amplitudes:   CPU 0.00 s  wall 0.00 s

Running a double precision version
           CCSD T amplitudes will be solved using DIIS.

           Start     Size      MaxIter   EConv     TConv     
           3         7         100       1.00e-07  1.00e-05  
 ------------------------------------------------------------------------------
           Energy (a.u.)   Ediff      Tdiff       Comment
 ------------------------------------------------------------------------------
           -75.00320372                           
     1     -75.01345289   1.02e-02   1.71e-01     
     2     -75.01669047   3.24e-03   4.51e-02     
     3     -75.01785133   1.16e-03   1.58e-02     
     4     -75.01860767   7.56e-04   9.90e-03     Switched to DIIS steps.
     5     -75.01863356   2.59e-05   1.16e-03     
     6     -75.01863670   3.14e-06   2.96e-04     
     7     -75.01863659   1.13e-07   1.73e-05     
     8     -75.01863668   9.60e-08   4.92e-06     
 ------------------------------------------------------------------------------
           -75.01863668                           CCSD T converged.

End of double precision
 SCF energy                 = -74.96500406
 MP2 energy                 = -75.00320372
 CCSD correlation energy    =  -0.05363262
 CCSD total energy          = -75.01863668

 CCSD  T1^2 = 0.0005  T2^2 = 0.0305  Leading amplitudes:

 Amplitude    Orbitals with energies
  0.0151168373       4 (A) A                   ->    6 (A) A                    
                    -0.4490                          0.5734                     
  0.0151168373       4 (A) B                   ->    6 (A) B                    
                    -0.4490                          0.5734                     
 -0.0031613964       3 (A) A                   ->    7 (A) A                    
                    -0.6008                          0.7040                     
 -0.0031613964       3 (A) B                   ->    7 (A) B                    
                    -0.6008                          0.7040                     

 Amplitude    Orbitals with energies
 -0.0825987839       3 (A) A       3 (A) B     ->    7 (A) A       7 (A) B      
                    -0.6008       -0.6008            0.7040        0.7040       
  0.0825987839       3 (A) A       3 (A) B     ->    7 (A) B       7 (A) A      
                    -0.6008       -0.6008            0.7040        0.7040       
  0.0825987839       3 (A) B       3 (A) A     ->    7 (A) A       7 (A) B      
                    -0.6008       -0.6008            0.7040        0.7040       
 -0.0825987839       3 (A) B       3 (A) A     ->    7 (A) B       7 (A) A      
                    -0.6008       -0.6008            0.7040        0.7040       

 Computing CCSD intermediates for later calculations in double precision
 Finished.

Running a double precision version
           CCSD Lambda amplitudes will be solved using DIIS.
           Start     Size      MaxIter   EConv     LConv     
           3         7         100       1.00e-07  1.00e-05  
 ------------------------------------------------------------------------------
            Enorm      Ldiff       Comment
 ------------------------------------------------------------------------------
     1     5.17e-03   3.99e-03     
     2     1.38e-03   1.22e-03     
     3     4.82e-04   4.11e-04     
     4     9.54e-05   2.23e-04     Switched to DIIS steps.
     5     1.74e-05   4.01e-05     
     6     2.39e-06   2.59e-06     
     7     3.55e-07   1.47e-07     
     8     5.34e-08   2.59e-08     
 ------------------------------------------------------------------------------
                                   CCSD Lambda converged.

 Computing density matrices in double precision...
           Orbital response amplitudes will be solved using DIIS.
           Start     Size      MaxIter   EConv     LConv     
           3         7         100       1.00e-06  1.00e-06  
 ------------------------------------------------------------------------------
            Enorm      Ldiff       Comment
 ------------------------------------------------------------------------------
     1     4.79e-03   1.57e-04     
     2     3.17e-03   2.24e-03     
     3     2.35e-03   1.43e-03     
     4     4.58e-06   9.97e-04     Switched to DIIS steps.
     5     6.23e-09   1.86e-06     
     6     1.13e-09   1.05e-09     
 ------------------------------------------------------------------------------
                                   Orbital response converged.

 Computing density matrices... Done.
 CCSD calculation:   CPU 1.41 s  wall 1.00 s

 Transferring MO TPDM to AO TPDM
 Transferring g2_o1o1o1o1
 Transferring g2_o1o1o1v1
 Transferring g2_o1o1v1v1
 Transferring g2_o1v1o1v1
 Transferring g2_o1v1v1v1
 Transferring g2_v1v1v1v1
 Adding separable TPDM
 Computing TPDM gradient
 --------------------------------------------------------
 2e gradient
  Atom          X               Y               Z
 --------------------------------------------------------
    1         -1.743062        1.351129        0.000000  
    2          0.000383       -2.702537       -0.000000  
    3          1.742679        1.351408       -0.000000  
 --------------------------------------------------------
 --------------------------------------------------------
 Final gradient
  Atom          X               Y               Z
 --------------------------------------------------------
    1         -1.743062        1.351129        0.000000  
    2          0.000383       -2.702537       -0.000000  
    3          1.742679        1.351408       -0.000000  
 --------------------------------------------------------
 Analytic gradient from two-electron contribution:   CPU 0.85 s  wall 0.67 s

 Total ccman2 time:   CPU 2.78 s  wall 2.55 s


 --------------------------------------------------------------
             Orbital Energies (a.u.) and Symmetries
 --------------------------------------------------------------

 Alpha MOs, Restricted
 -- Occupied --                  
-20.246  -1.252  -0.601  -0.449  -0.389
  1 A'    2 A'    3 A'    4 A'    1 A"                                         
 -- Virtual --                   
  0.573   0.704
  5 A'    6 A'                                                                 

 Beta MOs, Restricted
 -- Occupied --                  
-20.246  -1.252  -0.601  -0.449  -0.389
  1 A'    2 A'    3 A'    4 A'    1 A"                                         
 -- Virtual --                   
  0.573   0.704
  5 A'    6 A'                                                                 
 --------------------------------------------------------------

          Ground-State Mulliken Net Atomic Charges

     Atom                 Charge (a.u.)
  ----------------------------------------
      1 H                     0.152544
      2 O                    -0.305121
      3 H                     0.152577
  ----------------------------------------
  Sum of atomic charges =     0.000000

 -----------------------------------------------------------------
                    Cartesian Multipole Moments
 -----------------------------------------------------------------
    Charge (ESU x 10^10)
                 0.0000
    Dipole Moment (Debye)
         X       0.0001      Y      -1.5590      Z      -0.0000
       Tot       1.5590
    Quadrupole Moments (Debye-Ang)
        XX      -4.4980     XY       0.0001     YY      -5.4567
        XZ      -0.0000     YZ      -0.0000     ZZ      -6.1372
    Octopole Moments (Debye-Ang^2)
       XXX       0.0001    XXY      -0.4544    XYY      -0.0001
       YYY      -0.0255    XXZ      -0.0000    XYZ       0.0000
       YYZ      -0.0000    XZZ      -0.0000    YZZ       0.0402
       ZZZ      -0.0000
    Hexadecapole Moments (Debye-Ang^3)
      XXXX      -7.1381   XXXY      -0.0001   XXYY      -1.8500
      XYYY       0.0001   YYYY      -5.1745   XXXZ       0.0000
      XXYZ      -0.0000   XYYZ       0.0000   YYYZ      -0.0000
      XXZZ      -1.8853   XYZZ       0.0000   YYZZ      -1.4456
      XZZZ       0.0000   YZZZ      -0.0000   ZZZZ      -3.2891
 -----------------------------------------------------------------
 DrvMan completing analytic gradient of the correlated energy
 Correlated dipole moment
            1
    1   0.0000389
    2  -0.6133637
    3  -0.0000000
 Energy read as -75.018636682
 Full Analytical Gradient: (in a.u., or Hartree/Bohr)
             1             2             3
    1   -0.01504232   -0.00006873    0.01511105
    2    0.03329498   -0.06665364    0.03335866
    3    0.00000000    0.00000000   -0.00000000
 Gradient time:  CPU 0.16 s  wall 0.19 s
 Geometry Optimization Parameters
   NAtoms,    NIC,     NZ,  NCons,   NDum,   NFix, NCnnct, MaxDiis
        3       9       0       2       0       0       0       0


** CONSTRAINED OPTIMIZATION IN DELOCALIZED INTERNAL COORDINATES **
   Searching for a Minimum

   Optimization Cycle:   1

                       Coordinates (Angstroms)
     ATOM                X               Y               Z
      1  H         0.7830968994   -0.4849023445    0.0000000000
      2  O        -0.0000192066    0.1212404556    0.0000000000
      3  H        -0.7829432469   -0.4850213000    0.0000000000
   Point Group: cs    Number of degrees of freedom:     3


   Energy is    -75.018636682

              Constraints and their Current Values
                                        Value     Constraint
   Distance(Angs):        1   2             0.990293     1.200000
   Distance(Angs):        2   3             0.990214     1.200000

 Attempting to generate delocalized internal coordinates
**WARNING** Problems with Internal Coordinates
  Switching to Cartesian Coordinates

   Using Lagrange Multiplier Algorithm


 Translations and Rotations Projected Out of Hessian

  5 Hessian modes will be used to form the next step
  Hessian Eigenvalues:
    -1.081296   -0.914037    1.000000    1.914037    2.081296

 Minimum search - taking P-RFO step
 Searching for Lamda that maximizes along the constraint modes only
 Value Taken    Lamda =   0.16144888
 Searching for Lamda that minimizes along all other modes
 Value Taken    Lamda =  -0.07469402
 Calculated Step too Large.  Step scaled by  0.691759
 Step Taken.  Stepsize is  0.300000

                             Maximum     Tolerance    Cnvgd?
         Gradient           0.396438      0.000300      NO
         Displacement       0.181430      0.001200      NO
         Energy change     *********      0.000001      NO

 ----------------------------------------------------------------
             Standard Nuclear Orientation (Angstroms)
    I     Atom           X                Y                Z
 ----------------------------------------------------------------
    1      H       0.8355718628    -0.5328938226     0.0000000000
    2      O      -0.0000114089     0.2172491958     0.0000000000
    3      H      -0.8354260080    -0.5330385622     0.0000000000
 ----------------------------------------------------------------
 Molecular Point Group                 Cs    NOp =  2
 Largest Abelian Subgroup              Cs    NOp =  2
 Nuclear Repulsion Energy =           7.85690236 hartrees
 There are        5 alpha and        5 beta electrons
 Applying Cartesian multipole field
    Component          Value
    ---------          -----
     (2,0,0)        1.00000E-10
     (0,2,0)        2.00000E-10
     (0,0,2)       -3.00000E-10
 Nucleus-field energy     =     0.0000000012 hartrees
 Requested basis set is STO-3G
 There are 4 shells and 7 basis functions
 A cutoff of  1.0D-14 yielded     10 shell pairs
 There are        34 function pairs
 Smallest overlap matrix eigenvalue = 4.49E-01
 Guess MOs from SCF MO coefficient file

 -----------------------------------------------------------------------
  General SCF calculation program by
  Eric Jon Sundstrom, Paul Horn, Yuezhi Mao, Dmitri Zuev, Alec White,
  David Stuck, Shaama M.S., Shane Yost, Joonho Lee, David Small,
  Daniel Levine, Susi Lehtola, Hugh Burton, Evgeny Epifanovsky,
  Bang C. Huynh
 -----------------------------------------------------------------------
 Hartree-Fock
 A restricted SCF calculation will be
 performed using DIIS
 SCF converges when DIIS error is below 1.0e-08
 ---------------------------------------
  Cycle       Energy         DIIS error
 ---------------------------------------
    1     -74.9298365352      2.18e-02  
    2     -74.9341755478      6.42e-03  
    3     -74.9347471646      2.61e-03  
    4     -74.9349041077      6.76e-04  
    5     -74.9349146722      6.03e-05  
    6     -74.9349147186      6.99e-07  
    7     -74.9349147186      1.56e-09  Convergence criterion met
 ---------------------------------------
 SCF time:   CPU 0.80s  wall 1.00s 
 SCF   energy in the final basis set =      -74.9349147186
 Total energy in the final basis set =      -74.9349147186


 ------------------------------------------------------------------------------

   CCMAN2: suite of methods based on coupled cluster
           and equation of motion theories.

   Components:
   * libvmm-1.3-trunk
     by Evgeny Epifanovsky, Ilya Kaliman.
   * libtensor-2.5-trunk
     by Evgeny Epifanovsky, Michael Wormit, Dmitry Zuev, Sam Manzer, 
        Ilya Kaliman.
   * libcc-2.5-trunk
     by Evgeny Epifanovsky, Arik Landau, Tomasz Kus, Kirill Khistyaev, 
        Dmitry Zuev, Prashant Manohar, Xintian Feng, Anna Krylov, 
        Matthew Goldey, Alec White, Thomas Jagau, Kaushik Nanda, 
        Anastasia Gunina, Alexander Kunitsa, Joonho Lee.

   CCMAN original authors:
   Anna I. Krylov, C. David Sherrill, Steven R. Gwaltney,
   Edward F. C. Byrd (2000)
   Sergey V. Levchenko, Lyudmila V. Slipchenko, Tao Wang,
   Ana-Maria C. Cristian (2003)
   Piotr A. Pieniazek, C. Melania Oana, Evgeny Epifanovsky (2007)
   Prashant Manohar (2009)

 ------------------------------------------------------------------------------


 Allocating and initializing 1808MB of RAM...
 Calculation will run on 12 cores.


 Occupation and symmetry of molecular orbitals

 Point group: C1 (1 irreducible representation).

                           A     All 
 -------------------------------------
 All molecular orbitals:
  - Alpha                  7     7   
  - Beta                   7     7   
 -------------------------------------
 Alpha orbitals:
  - Frozen occupied        1     1   
  - Active occupied        4     4   
  - Active virtual         2     2   
  - Frozen virtual         0     0   
 -------------------------------------
 Beta orbitals:
  - Frozen occupied        1     1   
  - Active occupied        4     4   
  - Active virtual         2     2   
  - Frozen virtual         0     0   
 -------------------------------------

 Import integrals:   CPU 0.00 s  wall 0.00 s

 Import integrals:   CPU 0.09 s  wall 0.05 s

 MP2 amplitudes:   CPU 0.00 s  wall 0.00 s

Running a double precision version
           CCSD T amplitudes will be solved using DIIS.

           Start     Size      MaxIter   EConv     TConv     
           3         7         100       1.00e-07  1.00e-05  
 ------------------------------------------------------------------------------
           Energy (a.u.)   Ediff      Tdiff       Comment
 ------------------------------------------------------------------------------
           -74.98814263                           
     1     -75.00256503   1.44e-02   2.17e-01     
     2     -75.00746325   4.90e-03   5.70e-02     
     3     -75.00941278   1.95e-03   2.21e-02     
     4     -75.01092336   1.51e-03   1.63e-02     Switched to DIIS steps.
     5     -75.01096880   4.54e-05   1.64e-03     
     6     -75.01097863   9.83e-06   6.07e-04     
     7     -75.01097783   8.01e-07   4.34e-05     
     8     -75.01097810   2.74e-07   1.20e-05     
     9     -75.01097812   2.03e-08   2.02e-06     
 ------------------------------------------------------------------------------
           -75.01097812                           CCSD T converged.

End of double precision
 SCF energy                 = -74.93491472
 MP2 energy                 = -74.98814263
 CCSD correlation energy    =  -0.07606340
 CCSD total energy          = -75.01097812

 CCSD  T1^2 = 0.0008  T2^2 = 0.0538  Leading amplitudes:

 Amplitude    Orbitals with energies
 -0.0194015376       4 (A) A                   ->    6 (A) A                    
                    -0.4501                          0.4727                     
 -0.0194015376       4 (A) B                   ->    6 (A) B                    
                    -0.4501                          0.4727                     
  0.0049282483       2 (A) A                   ->    6 (A) A                    
                    -1.2086                          0.4727                     
  0.0049282483       2 (A) B                   ->    6 (A) B                    
                    -1.2086                          0.4727                     

 Amplitude    Orbitals with energies
 -0.1094504523       3 (A) A       3 (A) B     ->    7 (A) A       7 (A) B      
                    -0.5267       -0.5267            0.5482        0.5482       
  0.1094504523       3 (A) A       3 (A) B     ->    7 (A) B       7 (A) A      
                    -0.5267       -0.5267            0.5482        0.5482       
  0.1094504523       3 (A) B       3 (A) A     ->    7 (A) A       7 (A) B      
                    -0.5267       -0.5267            0.5482        0.5482       
 -0.1094504523       3 (A) B       3 (A) A     ->    7 (A) B       7 (A) A      
                    -0.5267       -0.5267            0.5482        0.5482       

 Computing CCSD intermediates for later calculations in double precision
 Finished.

Running a double precision version
           CCSD Lambda amplitudes will be solved using DIIS.
           Start     Size      MaxIter   EConv     LConv     
           3         7         100       1.00e-07  1.00e-05  
 ------------------------------------------------------------------------------
            Enorm      Ldiff       Comment
 ------------------------------------------------------------------------------
     1     1.09e-02   8.74e-03     
     2     2.67e-03   2.45e-03     
     3     9.84e-04   8.39e-04     
     4     2.32e-04   4.88e-04     Switched to DIIS steps.
     5     3.99e-05   1.21e-04     
     6     6.25e-06   4.96e-06     
     7     8.70e-07   4.89e-07     
     8     1.72e-07   2.53e-08     
     9     2.95e-08   5.87e-09     
 ------------------------------------------------------------------------------
                                   CCSD Lambda converged.

 Computing density matrices in double precision...
           Orbital response amplitudes will be solved using DIIS.
           Start     Size      MaxIter   EConv     LConv     
           3         7         100       1.00e-06  1.00e-06  
 ------------------------------------------------------------------------------
            Enorm      Ldiff       Comment
 ------------------------------------------------------------------------------
     1     6.52e-03   8.61e-04     
     2     6.30e-03   2.19e-03     
     3     6.82e-03   2.70e-03     
     4     1.67e-05   3.53e-03     Switched to DIIS steps.
     5     2.69e-07   8.03e-06     
     6     2.18e-09   1.13e-07     
 ------------------------------------------------------------------------------
                                   Orbital response converged.

 Computing density matrices... Done.
 CCSD calculation:   CPU 1.47 s  wall 0.96 s

 Transferring MO TPDM to AO TPDM
 Transferring g2_o1o1o1o1
 Transferring g2_o1o1o1v1
 Transferring g2_o1o1v1v1
 Transferring g2_o1v1o1v1
 Transferring g2_o1v1v1v1
 Transferring g2_v1v1v1v1
 Adding separable TPDM
 Computing TPDM gradient
 --------------------------------------------------------
 2e gradient
  Atom          X               Y               Z
 --------------------------------------------------------
    1         -1.606894        1.502877       -0.000000  
    2          0.000294       -3.006067        0.000000  
    3          1.606600        1.503190       -0.000000  
 --------------------------------------------------------
 --------------------------------------------------------
 Final gradient
  Atom          X               Y               Z
 --------------------------------------------------------
    1         -1.606894        1.502877       -0.000000  
    2          0.000294       -3.006067        0.000000  
    3          1.606600        1.503190       -0.000000  
 --------------------------------------------------------
 Analytic gradient from two-electron contribution:   CPU 0.46 s  wall 0.28 s

 Total ccman2 time:   CPU 2.41 s  wall 1.46 s


 --------------------------------------------------------------
             Orbital Energies (a.u.) and Symmetries
 --------------------------------------------------------------

 Alpha MOs, Restricted
 -- Occupied --                  
-20.275  -1.209  -0.527  -0.450  -0.392
  1 A'    2 A'    3 A'    4 A'    1 A"                                         
 -- Virtual --                   
  0.473   0.548
  5 A'    6 A'                                                                 

 Beta MOs, Restricted
 -- Occupied --                  
-20.275  -1.209  -0.527  -0.450  -0.392
  1 A'    2 A'    3 A'    4 A'    1 A"                                         
 -- Virtual --                   
  0.473   0.548
  5 A'    6 A'                                                                 
 --------------------------------------------------------------

          Ground-State Mulliken Net Atomic Charges

     Atom                 Charge (a.u.)
  ----------------------------------------
      1 H                     0.096656
      2 O                    -0.193322
      3 H                     0.096666
  ----------------------------------------
  Sum of atomic charges =     0.000000

 -----------------------------------------------------------------
                    Cartesian Multipole Moments
 -----------------------------------------------------------------
    Charge (ESU x 10^10)
                -0.0000
    Dipole Moment (Debye)
         X       0.0001      Y      -1.3339      Z       0.0000
       Tot       1.3339
    Quadrupole Moments (Debye-Ang)
        XX      -4.7662     XY       0.0001     YY      -5.5415
        XZ      -0.0000     YZ       0.0000     ZZ      -6.2420
    Octopole Moments (Debye-Ang^2)
       XXX       0.0000    XXY      -0.7084    XYY      -0.0001
       YYY      -0.8729    XXZ       0.0000    XYZ      -0.0000
       YYZ       0.0000    XZZ      -0.0001    YZZ      -0.2792
       ZZZ       0.0000
    Hexadecapole Moments (Debye-Ang^3)
      XXXX      -8.3911   XXXY      -0.0001   XXYY      -2.2408
      XYYY       0.0000   YYYY      -6.5666   XXXZ      -0.0000
      XXYZ       0.0000   XYYZ      -0.0000   YYYZ       0.0000
      XXZZ      -2.1127   XYZZ      -0.0000   YYZZ      -1.7213
      XZZZ      -0.0000   YZZZ       0.0000   ZZZZ      -3.4102
 -----------------------------------------------------------------
 DrvMan completing analytic gradient of the correlated energy
 Correlated dipole moment
            1
    1   0.0000392
    2  -0.5248118
    3   0.0000000
 Energy read as -75.010978122
 Full Analytical Gradient: (in a.u., or Hartree/Bohr)
             1             2             3
    1    0.04791640   -0.00001901   -0.04789739
    2   -0.03860559    0.07721020   -0.03860461
    3   -0.00000000    0.00000000   -0.00000000
 Gradient time:  CPU 0.13 s  wall 0.12 s
 Geometry Optimization Parameters
   NAtoms,    NIC,     NZ,  NCons,   NDum,   NFix, NCnnct, MaxDiis
        3       9       0       2       0       0       0       0

 Cartesian Hessian Update
 Hessian updated using BFGS update


** CONSTRAINED OPTIMIZATION IN CARTESIAN COORDINATES **
   Searching for a Minimum

   Optimization Cycle:   2

                       Coordinates (Angstroms)
     ATOM                X               Y               Z
      1  H         0.8355718628   -0.5328938226    0.0000000000
      2  O        -0.0000114089    0.2172491958    0.0000000000
      3  H        -0.8354260080   -0.5330385622    0.0000000000
   Point Group: cs    Number of degrees of freedom:     3


   Energy is    -75.010978122

              Constraints and their Current Values
                                        Value     Constraint
   Distance(Angs):        1   2             1.122904     1.200000
   Distance(Angs):        2   3             1.122875     1.200000

   Using Lagrange Multiplier Algorithm


 Translations and Rotations Projected Out of Hessian

  5 Hessian modes will be used to form the next step
  Hessian Eigenvalues:
    -1.061611   -1.043002    0.931160    1.783564    2.020374

 Minimum search - taking P-RFO step
 Searching for Lamda that maximizes along the constraint modes only
 Value Taken    Lamda =   0.01179115
 Searching for Lamda that minimizes along all other modes
 Value Taken    Lamda =  -0.02036069
 Step Taken.  Stepsize is  0.149238

                             Maximum     Tolerance    Cnvgd?
         Gradient           0.145744      0.000300      NO
         Displacement       0.102694      0.001200      NO
         Energy change      0.007659      0.000001      NO

 ----------------------------------------------------------------
             Standard Nuclear Orientation (Angstroms)
    I     Atom           X                Y                Z
 ----------------------------------------------------------------
    1      H       0.8648530344    -0.5600581321     0.0000000000
    2      O      -0.0000066861     0.2715926142     0.0000000000
    3      H      -0.8647119023    -0.5602176710     0.0000000000
 ----------------------------------------------------------------
 Molecular Point Group                 Cs    NOp =  2
 Largest Abelian Subgroup              Cs    NOp =  2
 Nuclear Repulsion Energy =           7.36257627 hartrees
 There are        5 alpha and        5 beta electrons
 Applying Cartesian multipole field
    Component          Value
    ---------          -----
     (2,0,0)        1.00000E-10
     (0,2,0)        2.00000E-10
     (0,0,2)       -3.00000E-10
 Nucleus-field energy     =     0.0000000014 hartrees
 Requested basis set is STO-3G
 There are 4 shells and 7 basis functions
 A cutoff of  1.0D-14 yielded     10 shell pairs
 There are        34 function pairs
 Smallest overlap matrix eigenvalue = 4.96E-01
 Guess MOs from SCF MO coefficient file

 -----------------------------------------------------------------------
  General SCF calculation program by
  Eric Jon Sundstrom, Paul Horn, Yuezhi Mao, Dmitri Zuev, Alec White,
  David Stuck, Shaama M.S., Shane Yost, Joonho Lee, David Small,
  Daniel Levine, Susi Lehtola, Hugh Burton, Evgeny Epifanovsky,
  Bang C. Huynh
 -----------------------------------------------------------------------
 Hartree-Fock
 A restricted SCF calculation will be
 performed using DIIS
 SCF converges when DIIS error is below 1.0e-08
 ---------------------------------------
  Cycle       Energy         DIIS error
 ---------------------------------------
    1     -74.8965089479      9.56e-03  
    2     -74.8973077150      3.14e-03  
    3     -74.8974560546      1.37e-03  
    4     -74.8975027141      4.64e-04  
    5     -74.8975085258      3.38e-05  
    6     -74.8975085410      3.05e-07  
    7     -74.8975085410      1.51e-09  Convergence criterion met
 ---------------------------------------
 SCF time:   CPU 0.76s  wall 0.00s 
 SCF   energy in the final basis set =      -74.8975085410
 Total energy in the final basis set =      -74.8975085410


 ------------------------------------------------------------------------------

   CCMAN2: suite of methods based on coupled cluster
           and equation of motion theories.

   Components:
   * libvmm-1.3-trunk
     by Evgeny Epifanovsky, Ilya Kaliman.
   * libtensor-2.5-trunk
     by Evgeny Epifanovsky, Michael Wormit, Dmitry Zuev, Sam Manzer, 
        Ilya Kaliman.
   * libcc-2.5-trunk
     by Evgeny Epifanovsky, Arik Landau, Tomasz Kus, Kirill Khistyaev, 
        Dmitry Zuev, Prashant Manohar, Xintian Feng, Anna Krylov, 
        Matthew Goldey, Alec White, Thomas Jagau, Kaushik Nanda, 
        Anastasia Gunina, Alexander Kunitsa, Joonho Lee.

   CCMAN original authors:
   Anna I. Krylov, C. David Sherrill, Steven R. Gwaltney,
   Edward F. C. Byrd (2000)
   Sergey V. Levchenko, Lyudmila V. Slipchenko, Tao Wang,
   Ana-Maria C. Cristian (2003)
   Piotr A. Pieniazek, C. Melania Oana, Evgeny Epifanovsky (2007)
   Prashant Manohar (2009)

 ------------------------------------------------------------------------------


 Allocating and initializing 1808MB of RAM...
 Calculation will run on 12 cores.


 Occupation and symmetry of molecular orbitals

 Point group: C1 (1 irreducible representation).

                           A     All 
 -------------------------------------
 All molecular orbitals:
  - Alpha                  7     7   
  - Beta                   7     7   
 -------------------------------------
 Alpha orbitals:
  - Frozen occupied        1     1   
  - Active occupied        4     4   
  - Active virtual         2     2   
  - Frozen virtual         0     0   
 -------------------------------------
 Beta orbitals:
  - Frozen occupied        1     1   
  - Active occupied        4     4   
  - Active virtual         2     2   
  - Frozen virtual         0     0   
 -------------------------------------

 Import integrals:   CPU 0.00 s  wall 0.00 s

 Import integrals:   CPU 0.08 s  wall 0.05 s

 MP2 amplitudes:   CPU 0.00 s  wall 0.00 s

Running a double precision version
           CCSD T amplitudes will be solved using DIIS.

           Start     Size      MaxIter   EConv     TConv     
           3         7         100       1.00e-07  1.00e-05  
 ------------------------------------------------------------------------------
           Energy (a.u.)   Ediff      Tdiff       Comment
 ------------------------------------------------------------------------------
           -74.96125628                           
     1     -74.97825898   1.70e-02   2.48e-01     
     2     -74.98427487   6.02e-03   6.38e-02     
     3     -74.98682023   2.55e-03   2.64e-02     
     4     -74.98899019   2.17e-03   2.11e-02     Switched to DIIS steps.
     5     -74.98904396   5.38e-05   1.98e-03     
     6     -74.98906226   1.83e-05   8.77e-04     
     7     -74.98906091   1.35e-06   9.07e-05     
     8     -74.98906132   4.15e-07   2.64e-05     
     9     -74.98906139   6.89e-08   4.55e-06     
 ------------------------------------------------------------------------------
           -74.98906139                           CCSD T converged.

End of double precision
 SCF energy                 = -74.89750854
 MP2 energy                 = -74.96125628
 CCSD correlation energy    =  -0.09155285
 CCSD total energy          = -74.98906139

 CCSD  T1^2 = 0.0010  T2^2 = 0.0729  Leading amplitudes:

 Amplitude    Orbitals with energies
 -0.0198037270       4 (A) A                   ->    6 (A) A                    
                    -0.4449                          0.4219                     
 -0.0198037270       4 (A) B                   ->    6 (A) B                    
                    -0.4449                          0.4219                     
  0.0080852404       2 (A) A                   ->    6 (A) A                    
                    -1.1896                          0.4219                     
  0.0080852404       2 (A) B                   ->    6 (A) B                    
                    -1.1896                          0.4219                     

 Amplitude    Orbitals with energies
 -0.1280286594       3 (A) A       3 (A) B     ->    7 (A) A       7 (A) B      
                    -0.4903       -0.4903            0.4750        0.4750       
  0.1280286594       3 (A) A       3 (A) B     ->    7 (A) B       7 (A) A      
                    -0.4903       -0.4903            0.4750        0.4750       
  0.1280286594       3 (A) B       3 (A) A     ->    7 (A) A       7 (A) B      
                    -0.4903       -0.4903            0.4750        0.4750       
 -0.1280286594       3 (A) B       3 (A) A     ->    7 (A) B       7 (A) A      
                    -0.4903       -0.4903            0.4750        0.4750       
 -0.1052802827       4 (A) A       4 (A) B     ->    6 (A) A       6 (A) B      
                    -0.4449       -0.4449            0.4219        0.4219       
  0.1052802827       4 (A) A       4 (A) B     ->    6 (A) B       6 (A) A      
                    -0.4449       -0.4449            0.4219        0.4219       
  0.1052802827       4 (A) B       4 (A) A     ->    6 (A) A       6 (A) B      
                    -0.4449       -0.4449            0.4219        0.4219       
 -0.1052802827       4 (A) B       4 (A) A     ->    6 (A) B       6 (A) A      
                    -0.4449       -0.4449            0.4219        0.4219       

 Computing CCSD intermediates for later calculations in double precision
 Finished.

Running a double precision version
           CCSD Lambda amplitudes will be solved using DIIS.
           Start     Size      MaxIter   EConv     LConv     
           3         7         100       1.00e-07  1.00e-05  
 ------------------------------------------------------------------------------
            Enorm      Ldiff       Comment
 ------------------------------------------------------------------------------
     1     1.69e-02   1.33e-02     
     2     3.72e-03   3.42e-03     
     3     1.42e-03   1.18e-03     
     4     3.58e-04   7.10e-04     Switched to DIIS steps.
     5     5.66e-05   1.99e-04     
     6     1.11e-05   4.13e-06     
     7     1.58e-06   1.18e-07     
     8     3.19e-07   1.88e-07     
     9     4.12e-08   3.25e-09     
 ------------------------------------------------------------------------------
                                   CCSD Lambda converged.

 Computing density matrices in double precision...
           Orbital response amplitudes will be solved using DIIS.
           Start     Size      MaxIter   EConv     LConv     
           3         7         100       1.00e-06  1.00e-06  
 ------------------------------------------------------------------------------
            Enorm      Ldiff       Comment
 ------------------------------------------------------------------------------
     1     7.61e-03   1.57e-03     
     2     8.90e-03   1.51e-03     
     3     1.17e-02   4.33e-03     
     4     3.08e-05   6.60e-03     Switched to DIIS steps.
     5     1.76e-06   1.51e-05     
     6     2.63e-09   6.81e-07     
 ------------------------------------------------------------------------------
                                   Orbital response converged.

 Computing density matrices... Done.
 CCSD calculation:   CPU 1.54 s  wall 1.00 s

 Transferring MO TPDM to AO TPDM
 Transferring g2_o1o1o1o1
 Transferring g2_o1o1o1v1
 Transferring g2_o1o1v1v1
 Transferring g2_o1v1o1v1
 Transferring g2_o1v1v1v1
 Transferring g2_v1v1v1v1
 Adding separable TPDM
 Computing TPDM gradient
 --------------------------------------------------------
 2e gradient
  Atom          X               Y               Z
 --------------------------------------------------------
    1         -1.503306        1.520018       -0.000000  
    2          0.000281       -3.040315        0.000000  
    3          1.503025        1.520297       -0.000000  
 --------------------------------------------------------
 --------------------------------------------------------
 Final gradient
  Atom          X               Y               Z
 --------------------------------------------------------
    1         -1.503306        1.520018       -0.000000  
    2          0.000281       -3.040315        0.000000  
    3          1.503025        1.520297       -0.000000  
 --------------------------------------------------------
 Analytic gradient from two-electron contribution:   CPU 0.45 s  wall 0.28 s

 Total ccman2 time:   CPU 2.37 s  wall 1.48 s


 --------------------------------------------------------------
             Orbital Energies (a.u.) and Symmetries
 --------------------------------------------------------------

 Alpha MOs, Restricted
 -- Occupied --                  
-20.288  -1.190  -0.490  -0.445  -0.395
  1 A'    2 A'    3 A'    4 A'    1 A"                                         
 -- Virtual --                   
  0.422   0.475
  5 A'    6 A'                                                                 

 Beta MOs, Restricted
 -- Occupied --                  
-20.288  -1.190  -0.490  -0.445  -0.395
  1 A'    2 A'    3 A'    4 A'    1 A"                                         
 -- Virtual --                   
  0.422   0.475
  5 A'    6 A'                                                                 
 --------------------------------------------------------------

          Ground-State Mulliken Net Atomic Charges

     Atom                 Charge (a.u.)
  ----------------------------------------
      1 H                     0.073115
      2 O                    -0.146231
      3 H                     0.073116
  ----------------------------------------
  Sum of atomic charges =     0.000000

 -----------------------------------------------------------------
                    Cartesian Multipole Moments
 -----------------------------------------------------------------
    Charge (ESU x 10^10)
                -0.0000
    Dipole Moment (Debye)
         X       0.0001      Y      -1.1920      Z       0.0000
       Tot       1.1920
    Quadrupole Moments (Debye-Ang)
        XX      -4.8924     XY       0.0000     YY      -5.5610
        XZ       0.0000     YZ       0.0000     ZZ      -6.2887
    Octopole Moments (Debye-Ang^2)
       XXX      -0.0000    XXY      -0.8544    XYY      -0.0001
       YYY      -1.3337    XXZ       0.0000    XYZ       0.0000
       YYZ       0.0000    XZZ      -0.0001    YZZ      -0.4618
       ZZZ       0.0000
    Hexadecapole Moments (Debye-Ang^3)
      XXXX      -9.0933   XXXY      -0.0002   XXYY      -2.4985
      XYYY      -0.0000   YYYY      -7.5514   XXXZ       0.0000
      XXYZ       0.0000   XYYZ       0.0000   YYYZ       0.0000
      XXZZ      -2.2376   XYZZ      -0.0000   YYZZ      -1.9138
      XZZZ       0.0000   YZZZ       0.0000   ZZZZ      -3.4667
 -----------------------------------------------------------------
 DrvMan completing analytic gradient of the correlated energy
 Correlated dipole moment
            1
    1   0.0000431
    2  -0.4689676
    3   0.0000000
 Energy read as -74.989061391
 Full Analytical Gradient: (in a.u., or Hartree/Bohr)
             1             2             3
    1    0.06126472   -0.00001163   -0.06125310
    2   -0.06192557    0.12386231   -0.06193675
    3   -0.00000000    0.00000000   -0.00000000
 Gradient time:  CPU 0.13 s  wall 0.14 s
 Geometry Optimization Parameters
   NAtoms,    NIC,     NZ,  NCons,   NDum,   NFix, NCnnct, MaxDiis
        3       9       0       2       0       0       0       0

 Cartesian Hessian Update
 Hessian updated using BFGS update


** CONSTRAINED OPTIMIZATION IN CARTESIAN COORDINATES **
   Searching for a Minimum

   Optimization Cycle:   3

                       Coordinates (Angstroms)
     ATOM                X               Y               Z
      1  H         0.8648530344   -0.5600581321    0.0000000000
      2  O        -0.0000066861    0.2715926142    0.0000000000
      3  H        -0.8647119023   -0.5602176710    0.0000000000
   Point Group: cs    Number of degrees of freedom:     3


   Energy is    -74.989061391

              Constraints and their Current Values
                                        Value     Constraint
   Distance(Angs):        1   2             1.199844     1.200000
   Distance(Angs):        2   3             1.199843     1.200000

   Using Lagrange Multiplier Algorithm


 Translations and Rotations Projected Out of Hessian

  5 Hessian modes will be used to form the next step
  Hessian Eigenvalues:
    -1.227332   -1.021300    0.938553    1.601930    1.996426

 Minimum search - taking P-RFO step
 Searching for Lamda that maximizes along the constraint modes only
 Value Taken    Lamda =   0.00099538
 Searching for Lamda that minimizes along all other modes
 Value Taken    Lamda =  -0.00104287
 Step Taken.  Stepsize is  0.038438

                             Maximum     Tolerance    Cnvgd?
         Gradient           0.035808      0.000300      NO
         Displacement       0.027043      0.001200      NO
         Energy change      0.021917      0.000001      NO

 ----------------------------------------------------------------
             Standard Nuclear Orientation (Angstroms)
    I     Atom           X                Y                Z
 ----------------------------------------------------------------
    1      H       0.8662106571    -0.5596632333     0.0000000000
    2      O      -0.0000063406     0.2708033288     0.0000000000
    3      H      -0.8660698706    -0.5598232844     0.0000000000
 ----------------------------------------------------------------
 Molecular Point Group                 Cs    NOp =  2
 Largest Abelian Subgroup              Cs    NOp =  2
 Nuclear Repulsion Energy =           7.36116006 hartrees
 There are        5 alpha and        5 beta electrons
 Applying Cartesian multipole field
    Component          Value
    ---------          -----
     (2,0,0)        1.00000E-10
     (0,2,0)        2.00000E-10
     (0,0,2)       -3.00000E-10
 Nucleus-field energy     =     0.0000000014 hartrees
 Requested basis set is STO-3G
 There are 4 shells and 7 basis functions
 A cutoff of  1.0D-14 yielded     10 shell pairs
 There are        34 function pairs
 Smallest overlap matrix eigenvalue = 4.96E-01
 Guess MOs from SCF MO coefficient file

 -----------------------------------------------------------------------
  General SCF calculation program by
  Eric Jon Sundstrom, Paul Horn, Yuezhi Mao, Dmitri Zuev, Alec White,
  David Stuck, Shaama M.S., Shane Yost, Joonho Lee, David Small,
  Daniel Levine, Susi Lehtola, Hugh Burton, Evgeny Epifanovsky,
  Bang C. Huynh
 -----------------------------------------------------------------------
 Hartree-Fock
 A restricted SCF calculation will be
 performed using DIIS
 SCF converges when DIIS error is below 1.0e-08
 ---------------------------------------
  Cycle       Energy         DIIS error
 ---------------------------------------
    1     -74.8974731890      8.29e-05  
    2     -74.8974733290      4.35e-05  
    3     -74.8974733811      7.24e-06  
    4     -74.8974733820      8.10e-07  
    5     -74.8974733820      1.03e-07  
    6     -74.8974733820      1.08e-10  Convergence criterion met
 ---------------------------------------
 SCF time:   CPU 0.65s  wall 1.00s 
 SCF   energy in the final basis set =      -74.8974733820
 Total energy in the final basis set =      -74.8974733820


 ------------------------------------------------------------------------------

   CCMAN2: suite of methods based on coupled cluster
           and equation of motion theories.

   Components:
   * libvmm-1.3-trunk
     by Evgeny Epifanovsky, Ilya Kaliman.
   * libtensor-2.5-trunk
     by Evgeny Epifanovsky, Michael Wormit, Dmitry Zuev, Sam Manzer, 
        Ilya Kaliman.
   * libcc-2.5-trunk
     by Evgeny Epifanovsky, Arik Landau, Tomasz Kus, Kirill Khistyaev, 
        Dmitry Zuev, Prashant Manohar, Xintian Feng, Anna Krylov, 
        Matthew Goldey, Alec White, Thomas Jagau, Kaushik Nanda, 
        Anastasia Gunina, Alexander Kunitsa, Joonho Lee.

   CCMAN original authors:
   Anna I. Krylov, C. David Sherrill, Steven R. Gwaltney,
   Edward F. C. Byrd (2000)
   Sergey V. Levchenko, Lyudmila V. Slipchenko, Tao Wang,
   Ana-Maria C. Cristian (2003)
   Piotr A. Pieniazek, C. Melania Oana, Evgeny Epifanovsky (2007)
   Prashant Manohar (2009)

 ------------------------------------------------------------------------------


 Allocating and initializing 1808MB of RAM...
 Calculation will run on 12 cores.


 Occupation and symmetry of molecular orbitals

 Point group: C1 (1 irreducible representation).

                           A     All 
 -------------------------------------
 All molecular orbitals:
  - Alpha                  7     7   
  - Beta                   7     7   
 -------------------------------------
 Alpha orbitals:
  - Frozen occupied        1     1   
  - Active occupied        4     4   
  - Active virtual         2     2   
  - Frozen virtual         0     0   
 -------------------------------------
 Beta orbitals:
  - Frozen occupied        1     1   
  - Active occupied        4     4   
  - Active virtual         2     2   
  - Frozen virtual         0     0   
 -------------------------------------

 Import integrals:   CPU 0.00 s  wall 0.00 s

 Import integrals:   CPU 0.09 s  wall 0.05 s

 MP2 amplitudes:   CPU 0.00 s  wall 0.00 s

Running a double precision version
           CCSD T amplitudes will be solved using DIIS.

           Start     Size      MaxIter   EConv     TConv     
           3         7         100       1.00e-07  1.00e-05  
 ------------------------------------------------------------------------------
           Energy (a.u.)   Ediff      Tdiff       Comment
 ------------------------------------------------------------------------------
           -74.96119620                           
     1     -74.97820776   1.70e-02   2.47e-01     
     2     -74.98422950   6.02e-03   6.38e-02     
     3     -74.98677783   2.55e-03   2.64e-02     
     4     -74.98895088   2.17e-03   2.11e-02     Switched to DIIS steps.
     5     -74.98900502   5.41e-05   1.99e-03     
     6     -74.98902343   1.84e-05   8.79e-04     
     7     -74.98902208   1.35e-06   9.08e-05     
     8     -74.98902249   4.15e-07   2.65e-05     
     9     -74.98902256   6.95e-08   4.59e-06     
 ------------------------------------------------------------------------------
           -74.98902256                           CCSD T converged.

End of double precision
 SCF energy                 = -74.89747338
 MP2 energy                 = -74.96119620
 CCSD correlation energy    =  -0.09154918
 CCSD total energy          = -74.98902256

 CCSD  T1^2 = 0.0010  T2^2 = 0.0729  Leading amplitudes:

 Amplitude    Orbitals with energies
 -0.0199318698       4 (A) A                   ->    6 (A) A                    
                    -0.4445                          0.4216                     
 -0.0199318698       4 (A) B                   ->    6 (A) B                    
                    -0.4445                          0.4216                     
  0.0080682335       2 (A) A                   ->    6 (A) A                    
                    -1.1895                          0.4216                     
  0.0080682335       2 (A) B                   ->    6 (A) B                    
                    -1.1895                          0.4216                     

 Amplitude    Orbitals with energies
 -0.1279327989       3 (A) A       3 (A) B     ->    7 (A) A       7 (A) B      
                    -0.4906       -0.4906            0.4752        0.4752       
  0.1279327989       3 (A) A       3 (A) B     ->    7 (A) B       7 (A) A      
                    -0.4906       -0.4906            0.4752        0.4752       
  0.1279327989       3 (A) B       3 (A) A     ->    7 (A) A       7 (A) B      
                    -0.4906       -0.4906            0.4752        0.4752       
 -0.1279327989       3 (A) B       3 (A) A     ->    7 (A) B       7 (A) A      
                    -0.4906       -0.4906            0.4752        0.4752       
 -0.1053679123       4 (A) A       4 (A) B     ->    6 (A) A       6 (A) B      
                    -0.4445       -0.4445            0.4216        0.4216       
  0.1053679123       4 (A) A       4 (A) B     ->    6 (A) B       6 (A) A      
                    -0.4445       -0.4445            0.4216        0.4216       
  0.1053679123       4 (A) B       4 (A) A     ->    6 (A) A       6 (A) B      
                    -0.4445       -0.4445            0.4216        0.4216       
 -0.1053679123       4 (A) B       4 (A) A     ->    6 (A) B       6 (A) A      
                    -0.4445       -0.4445            0.4216        0.4216       

 Computing CCSD intermediates for later calculations in double precision
 Finished.

Running a double precision version
           CCSD Lambda amplitudes will be solved using DIIS.
           Start     Size      MaxIter   EConv     LConv     
           3         7         100       1.00e-07  1.00e-05  
 ------------------------------------------------------------------------------
            Enorm      Ldiff       Comment
 ------------------------------------------------------------------------------
     1     1.69e-02   1.33e-02     
     2     3.72e-03   3.43e-03     
     3     1.43e-03   1.18e-03     
     4     3.58e-04   7.13e-04     Switched to DIIS steps.
     5     5.70e-05   1.99e-04     
     6     1.12e-05   4.23e-06     
     7     1.58e-06   1.42e-07     
     8     3.20e-07   1.84e-07     
     9     4.04e-08   4.56e-09     
 ------------------------------------------------------------------------------
                                   CCSD Lambda converged.

 Computing density matrices in double precision...
           Orbital response amplitudes will be solved using DIIS.
           Start     Size      MaxIter   EConv     LConv     
           3         7         100       1.00e-06  1.00e-06  
 ------------------------------------------------------------------------------
            Enorm      Ldiff       Comment
 ------------------------------------------------------------------------------
     1     7.59e-03   1.56e-03     
     2     8.87e-03   1.51e-03     
     3     1.17e-02   4.31e-03     
     4     3.08e-05   6.58e-03     Switched to DIIS steps.
     5     1.68e-06   1.52e-05     
     6     2.60e-09   6.52e-07     
 ------------------------------------------------------------------------------
                                   Orbital response converged.

 Computing density matrices... Done.
 CCSD calculation:   CPU 2.39 s  wall 1.07 s

 Transferring MO TPDM to AO TPDM
 Transferring g2_o1o1o1o1
 Transferring g2_o1o1o1v1
 Transferring g2_o1o1v1v1
 Transferring g2_o1v1o1v1
 Transferring g2_o1v1v1v1
 Transferring g2_v1v1v1v1
 Adding separable TPDM
 Computing TPDM gradient
 --------------------------------------------------------
 2e gradient
  Atom          X               Y               Z
 --------------------------------------------------------
    1         -1.507351        1.516423        0.000000  
    2          0.000280       -3.033124       -0.000000  
    3          1.507071        1.516701        0.000000  
 --------------------------------------------------------
 --------------------------------------------------------
 Final gradient
  Atom          X               Y               Z
 --------------------------------------------------------
    1         -1.507351        1.516423        0.000000  
    2          0.000280       -3.033124       -0.000000  
    3          1.507071        1.516701        0.000000  
 --------------------------------------------------------
 Analytic gradient from two-electron contribution:   CPU 0.45 s  wall 0.28 s

 Total ccman2 time:   CPU 3.19 s  wall 1.54 s


 --------------------------------------------------------------
             Orbital Energies (a.u.) and Symmetries
 --------------------------------------------------------------

 Alpha MOs, Restricted
 -- Occupied --                  
-20.288  -1.189  -0.491  -0.445  -0.395
  1 A'    2 A'    3 A'    4 A'    1 A"                                         
 -- Virtual --                   
  0.422   0.475
  5 A'    6 A'                                                                 

 Beta MOs, Restricted
 -- Occupied --                  
-20.288  -1.189  -0.491  -0.445  -0.395
  1 A'    2 A'    3 A'    4 A'    1 A"                                         
 -- Virtual --                   
  0.422   0.475
  5 A'    6 A'                                                                 
 --------------------------------------------------------------

          Ground-State Mulliken Net Atomic Charges

     Atom                 Charge (a.u.)
  ----------------------------------------
      1 H                     0.073112
      2 O                    -0.146223
      3 H                     0.073112
  ----------------------------------------
  Sum of atomic charges =     0.000000

 -----------------------------------------------------------------
                    Cartesian Multipole Moments
 -----------------------------------------------------------------
    Charge (ESU x 10^10)
                 0.0000
    Dipole Moment (Debye)
         X       0.0001      Y      -1.1912      Z       0.0000
       Tot       1.1912
    Quadrupole Moments (Debye-Ang)
        XX      -4.8883     XY       0.0000     YY      -5.5620
        XZ      -0.0000     YZ       0.0000     ZZ      -6.2888
    Octopole Moments (Debye-Ang^2)
       XXX      -0.0000    XXY      -0.8533    XYY      -0.0001
       YYY      -1.3243    XXZ       0.0000    XYZ      -0.0000
       YYZ       0.0000    XZZ      -0.0001    YZZ      -0.4585
       ZZZ       0.0000
    Hexadecapole Moments (Debye-Ang^3)
      XXXX      -9.1067   XXXY      -0.0002   XXYY      -2.4988
      XYYY      -0.0000   YYYY      -7.5385   XXXZ      -0.0000
      XXYZ       0.0000   XYYZ      -0.0000   YYYZ       0.0000
      XXZZ      -2.2410   XYZZ      -0.0000   YYZZ      -1.9113
      XZZZ      -0.0000   YZZZ       0.0000   ZZZZ      -3.4668
 -----------------------------------------------------------------
 DrvMan completing analytic gradient of the correlated energy
 Correlated dipole moment
            1
    1   0.0000433
    2  -0.4686515
    3   0.0000000
 Energy read as -74.989022564
 Full Analytical Gradient: (in a.u., or Hartree/Bohr)
             1             2             3
    1    0.06164941   -0.00001139   -0.06163802
    2   -0.06166054    0.12333246   -0.06167193
    3   -0.00000000    0.00000000   -0.00000000
 Gradient time:  CPU 0.13 s  wall 0.14 s
 Geometry Optimization Parameters
   NAtoms,    NIC,     NZ,  NCons,   NDum,   NFix, NCnnct, MaxDiis
        3       9       0       2       0       0       0       0

 Cartesian Hessian Update
 Hessian updated using BFGS update


** CONSTRAINED OPTIMIZATION IN CARTESIAN COORDINATES **
   Searching for a Minimum

   Optimization Cycle:   4

                       Coordinates (Angstroms)
     ATOM                X               Y               Z
      1  H         0.8662106571   -0.5596632333    0.0000000000
      2  O        -0.0000063406    0.2708033288    0.0000000000
      3  H        -0.8660698706   -0.5598232844    0.0000000000
   Point Group: cs    Number of degrees of freedom:     3


   Energy is    -74.989022564

              Constraints and their Current Values
                                        Value     Constraint
   Distance(Angs):        1   2             1.200003     1.200000
   Distance(Angs):        2   3             1.200003     1.200000

   Using Lagrange Multiplier Algorithm


 Translations and Rotations Projected Out of Hessian

  5 Hessian modes will be used to form the next step
  Hessian Eigenvalues:
    -1.216417   -1.020304    0.145388    1.613117    2.001303

 Minimum search - taking P-RFO step
 Searching for Lamda that maximizes along the constraint modes only
 Value Taken    Lamda =   0.00000002
 Searching for Lamda that minimizes along all other modes
 Value Taken    Lamda =  -0.00007153
 Step Taken.  Stepsize is  0.022176

                             Maximum     Tolerance    Cnvgd?
         Gradient           0.001975      0.000300      NO
         Displacement       0.013417      0.001200      NO
         Energy change      0.000039      0.000001      NO

 ----------------------------------------------------------------
             Standard Nuclear Orientation (Angstroms)
    I     Atom           X                Y                Z
 ----------------------------------------------------------------
    1      H       0.8733099427    -0.5571933178     0.0000000000
    2      O      -0.0000058859     0.2658648082     0.0000000000
    3      H      -0.8731696108    -0.5573546793     0.0000000000
 ----------------------------------------------------------------
 Molecular Point Group                 Cs    NOp =  2
 Largest Abelian Subgroup              Cs    NOp =  2
 Nuclear Repulsion Energy =           7.35843490 hartrees
 There are        5 alpha and        5 beta electrons
 Applying Cartesian multipole field
    Component          Value
    ---------          -----
     (2,0,0)        1.00000E-10
     (0,2,0)        2.00000E-10
     (0,0,2)       -3.00000E-10
 Nucleus-field energy     =     0.0000000014 hartrees
 Requested basis set is STO-3G
 There are 4 shells and 7 basis functions
 A cutoff of  1.0D-14 yielded     10 shell pairs
 There are        34 function pairs
 Smallest overlap matrix eigenvalue = 4.95E-01
 Guess MOs from SCF MO coefficient file

 -----------------------------------------------------------------------
  General SCF calculation program by
  Eric Jon Sundstrom, Paul Horn, Yuezhi Mao, Dmitri Zuev, Alec White,
  David Stuck, Shaama M.S., Shane Yost, Joonho Lee, David Small,
  Daniel Levine, Susi Lehtola, Hugh Burton, Evgeny Epifanovsky,
  Bang C. Huynh
 -----------------------------------------------------------------------
 Hartree-Fock
 A restricted SCF calculation will be
 performed using DIIS
 SCF converges when DIIS error is below 1.0e-08
 ---------------------------------------
  Cycle       Energy         DIIS error
 ---------------------------------------
    1     -74.8976831993      5.03e-04  
    2     -74.8976883524      2.64e-04  
    3     -74.8976901837      6.34e-05  
    4     -74.8976902654      6.21e-06  
    5     -74.8976902659      4.21e-08  
    6     -74.8976902659      9.16e-10  Convergence criterion met
 ---------------------------------------
 SCF time:   CPU 0.61s  wall 1.00s 
 SCF   energy in the final basis set =      -74.8976902659
 Total energy in the final basis set =      -74.8976902659


 ------------------------------------------------------------------------------

   CCMAN2: suite of methods based on coupled cluster
           and equation of motion theories.

   Components:
   * libvmm-1.3-trunk
     by Evgeny Epifanovsky, Ilya Kaliman.
   * libtensor-2.5-trunk
     by Evgeny Epifanovsky, Michael Wormit, Dmitry Zuev, Sam Manzer, 
        Ilya Kaliman.
   * libcc-2.5-trunk
     by Evgeny Epifanovsky, Arik Landau, Tomasz Kus, Kirill Khistyaev, 
        Dmitry Zuev, Prashant Manohar, Xintian Feng, Anna Krylov, 
        Matthew Goldey, Alec White, Thomas Jagau, Kaushik Nanda, 
        Anastasia Gunina, Alexander Kunitsa, Joonho Lee.

   CCMAN original authors:
   Anna I. Krylov, C. David Sherrill, Steven R. Gwaltney,
   Edward F. C. Byrd (2000)
   Sergey V. Levchenko, Lyudmila V. Slipchenko, Tao Wang,
   Ana-Maria C. Cristian (2003)
   Piotr A. Pieniazek, C. Melania Oana, Evgeny Epifanovsky (2007)
   Prashant Manohar (2009)

 ------------------------------------------------------------------------------


 Allocating and initializing 1808MB of RAM...
 Calculation will run on 12 cores.


 Occupation and symmetry of molecular orbitals

 Point group: C1 (1 irreducible representation).

                           A     All 
 -------------------------------------
 All molecular orbitals:
  - Alpha                  7     7   
  - Beta                   7     7   
 -------------------------------------
 Alpha orbitals:
  - Frozen occupied        1     1   
  - Active occupied        4     4   
  - Active virtual         2     2   
  - Frozen virtual         0     0   
 -------------------------------------
 Beta orbitals:
  - Frozen occupied        1     1   
  - Active occupied        4     4   
  - Active virtual         2     2   
  - Frozen virtual         0     0   
 -------------------------------------

 Import integrals:   CPU 0.00 s  wall 0.00 s

 Import integrals:   CPU 0.08 s  wall 0.04 s

 MP2 amplitudes:   CPU 0.00 s  wall 0.00 s

Running a double precision version
           CCSD T amplitudes will be solved using DIIS.

           Start     Size      MaxIter   EConv     TConv     
           3         7         100       1.00e-07  1.00e-05  
 ------------------------------------------------------------------------------
           Energy (a.u.)   Ediff      Tdiff       Comment
 ------------------------------------------------------------------------------
           -74.96115821                           
     1     -74.97818986   1.70e-02   2.46e-01     
     2     -74.98423095   6.04e-03   6.39e-02     
     3     -74.98678865   2.56e-03   2.64e-02     
     4     -74.98897067   2.18e-03   2.11e-02     Switched to DIIS steps.
     5     -74.98902692   5.62e-05   2.04e-03     
     6     -74.98904582   1.89e-05   8.83e-04     
     7     -74.98904446   1.36e-06   9.05e-05     
     8     -74.98904488   4.15e-07   2.69e-05     
     9     -74.98904495   7.15e-08   4.74e-06     
 ------------------------------------------------------------------------------
           -74.98904495                           CCSD T converged.

End of double precision
 SCF energy                 = -74.89769027
 MP2 energy                 = -74.96115821
 CCSD correlation energy    =  -0.09135469
 CCSD total energy          = -74.98904495

 CCSD  T1^2 = 0.0010  T2^2 = 0.0728  Leading amplitudes:

 Amplitude    Orbitals with energies
 -0.0206395162       4 (A) A                   ->    6 (A) A                    
                    -0.4427                          0.4203                     
 -0.0206395162       4 (A) B                   ->    6 (A) B                    
                    -0.4427                          0.4203                     
  0.0079418373       2 (A) A                   ->    6 (A) A                    
                    -1.1890                          0.4203                     
  0.0079418373       2 (A) B                   ->    6 (A) B                    
                    -1.1890                          0.4203                     

 Amplitude    Orbitals with energies
 -0.1271900872       3 (A) A       3 (A) B     ->    7 (A) A       7 (A) B      
                    -0.4920       -0.4920            0.4770        0.4770       
  0.1271900872       3 (A) A       3 (A) B     ->    7 (A) B       7 (A) A      
                    -0.4920       -0.4920            0.4770        0.4770       
  0.1271900872       3 (A) B       3 (A) A     ->    7 (A) A       7 (A) B      
                    -0.4920       -0.4920            0.4770        0.4770       
 -0.1271900872       3 (A) B       3 (A) A     ->    7 (A) B       7 (A) A      
                    -0.4920       -0.4920            0.4770        0.4770       
 -0.1056326258       4 (A) A       4 (A) B     ->    6 (A) A       6 (A) B      
                    -0.4427       -0.4427            0.4203        0.4203       
  0.1056326258       4 (A) A       4 (A) B     ->    6 (A) B       6 (A) A      
                    -0.4427       -0.4427            0.4203        0.4203       
  0.1056326258       4 (A) B       4 (A) A     ->    6 (A) A       6 (A) B      
                    -0.4427       -0.4427            0.4203        0.4203       
 -0.1056326258       4 (A) B       4 (A) A     ->    6 (A) B       6 (A) A      
                    -0.4427       -0.4427            0.4203        0.4203       

 Computing CCSD intermediates for later calculations in double precision
 Finished.

Running a double precision version
           CCSD Lambda amplitudes will be solved using DIIS.
           Start     Size      MaxIter   EConv     LConv     
           3         7         100       1.00e-07  1.00e-05  
 ------------------------------------------------------------------------------
            Enorm      Ldiff       Comment
 ------------------------------------------------------------------------------
     1     1.68e-02   1.33e-02     
     2     3.73e-03   3.44e-03     
     3     1.44e-03   1.19e-03     
     4     3.60e-04   7.23e-04     Switched to DIIS steps.
     5     5.86e-05   2.02e-04     
     6     1.13e-05   4.87e-06     
     7     1.59e-06   2.97e-07     
     8     3.18e-07   1.57e-07     
     9     3.57e-08   1.29e-08     
 ------------------------------------------------------------------------------
                                   CCSD Lambda converged.

 Computing density matrices in double precision...
           Orbital response amplitudes will be solved using DIIS.
           Start     Size      MaxIter   EConv     LConv     
           3         7         100       1.00e-06  1.00e-06  
 ------------------------------------------------------------------------------
            Enorm      Ldiff       Comment
 ------------------------------------------------------------------------------
     1     7.48e-03   1.49e-03     
     2     8.72e-03   1.50e-03     
     3     1.15e-02   4.21e-03     
     4     3.05e-05   6.45e-03     Switched to DIIS steps.
     5     1.21e-06   1.52e-05     
     6     2.43e-09   4.82e-07     
 ------------------------------------------------------------------------------
                                   Orbital response converged.

 Computing density matrices... Done.
 CCSD calculation:   CPU 1.41 s  wall 0.97 s

 Transferring MO TPDM to AO TPDM
 Transferring g2_o1o1o1o1
 Transferring g2_o1o1o1v1
 Transferring g2_o1o1v1v1
 Transferring g2_o1v1o1v1
 Transferring g2_o1v1v1v1
 Transferring g2_v1v1v1v1
 Adding separable TPDM
 Computing TPDM gradient
 --------------------------------------------------------
 2e gradient
  Atom          X               Y               Z
 --------------------------------------------------------
    1         -1.530475        1.496546        0.000000  
    2          0.000277       -2.993374       -0.000000  
    3          1.530199        1.496828       -0.000000  
 --------------------------------------------------------
 --------------------------------------------------------
 Final gradient
  Atom          X               Y               Z
 --------------------------------------------------------
    1         -1.530475        1.496546        0.000000  
    2          0.000277       -2.993374       -0.000000  
    3          1.530199        1.496828       -0.000000  
 --------------------------------------------------------
 Analytic gradient from two-electron contribution:   CPU 0.45 s  wall 0.28 s

 Total ccman2 time:   CPU 2.18 s  wall 1.43 s


 --------------------------------------------------------------
             Orbital Energies (a.u.) and Symmetries
 --------------------------------------------------------------

 Alpha MOs, Restricted
 -- Occupied --                  
-20.287  -1.189  -0.492  -0.443  -0.395
  1 A'    2 A'    3 A'    4 A'    1 A"                                         
 -- Virtual --                   
  0.420   0.477
  5 A'    6 A'                                                                 

 Beta MOs, Restricted
 -- Occupied --                  
-20.287  -1.189  -0.492  -0.443  -0.395
  1 A'    2 A'    3 A'    4 A'    1 A"                                         
 -- Virtual --                   
  0.420   0.477
  5 A'    6 A'                                                                 
 --------------------------------------------------------------

          Ground-State Mulliken Net Atomic Charges

     Atom                 Charge (a.u.)
  ----------------------------------------
      1 H                     0.073326
      2 O                    -0.146652
      3 H                     0.073326
  ----------------------------------------
  Sum of atomic charges =     0.000000

 -----------------------------------------------------------------
                    Cartesian Multipole Moments
 -----------------------------------------------------------------
    Charge (ESU x 10^10)
                -0.0000
    Dipole Moment (Debye)
         X       0.0001      Y      -1.1883      Z       0.0000
       Tot       1.1883
    Quadrupole Moments (Debye-Ang)
        XX      -4.8642     XY       0.0000     YY      -5.5671
        XZ       0.0000     YZ       0.0000     ZZ      -6.2887
    Octopole Moments (Debye-Ang^2)
       XXX      -0.0000    XXY      -0.8457    XYY      -0.0001
       YYY      -1.2678    XXZ      -0.0000    XYZ       0.0000
       YYZ       0.0000    XZZ      -0.0001    YZZ      -0.4387
       ZZZ       0.0000
    Hexadecapole Moments (Debye-Ang^3)
      XXXX      -9.1722   XXXY      -0.0002   XXYY      -2.4977
      XYYY      -0.0000   YYYY      -7.4571   XXXZ       0.0000
      XXYZ       0.0000   XYYZ       0.0000   YYYZ       0.0000
      XXZZ      -2.2579   XYZZ      -0.0000   YYZZ      -1.8954
      XZZZ       0.0000   YZZZ       0.0000   ZZZZ      -3.4668
 -----------------------------------------------------------------
 DrvMan completing analytic gradient of the correlated energy
 Correlated dipole moment
            1
    1   0.0000432
    2  -0.4675136
    3   0.0000000
 Energy read as -74.989044951
 Full Analytical Gradient: (in a.u., or Hartree/Bohr)
             1             2             3
    1    0.06363868   -0.00001109   -0.06362760
    2   -0.05999404    0.11999984   -0.06000580
    3    0.00000000   -0.00000000    0.00000000
 Gradient time:  CPU 0.12 s  wall 0.09 s
 Geometry Optimization Parameters
   NAtoms,    NIC,     NZ,  NCons,   NDum,   NFix, NCnnct, MaxDiis
        3       9       0       2       0       0       0       0

 Cartesian Hessian Update
 Hessian updated using BFGS update


** CONSTRAINED OPTIMIZATION IN CARTESIAN COORDINATES **
   Searching for a Minimum

   Optimization Cycle:   5

                       Coordinates (Angstroms)
     ATOM                X               Y               Z
      1  H         0.8733099427   -0.5571933178    0.0000000000
      2  O        -0.0000058859    0.2658648082    0.0000000000
      3  H        -0.8731696108   -0.5573546793    0.0000000000
   Point Group: cs    Number of degrees of freedom:     3


   Energy is    -74.989044951

              Constraints and their Current Values
                                        Value     Constraint
   Distance(Angs):        1   2             1.200044     1.200000
   Distance(Angs):        2   3             1.200044     1.200000

   Using Lagrange Multiplier Algorithm


 Translations and Rotations Projected Out of Hessian

  5 Hessian modes will be used to form the next step
  Hessian Eigenvalues:
    -1.213517   -1.025827    0.145439    1.602333    2.007177

 Minimum search - taking P-RFO step
 Searching for Lamda that maximizes along the constraint modes only
 Value Taken    Lamda =   0.00000000
 Searching for Lamda that minimizes along all other modes
 Value Taken    Lamda =  -0.00000003
 Step Taken.  Stepsize is  0.000170

                             Maximum     Tolerance    Cnvgd?
         Gradient           0.000121      0.000300     YES
         Displacement       0.000110      0.001200     YES
         Energy change     -0.000022      0.000001      NO


                       Distance Matrix (Angstroms)
             H (  1)   O (  2)
   O (  2)  1.200044
   H (  3)  1.746480  1.200044

 Final energy is   -74.989044951215035     


 ******************************
 **  OPTIMIZATION CONVERGED  **
 ******************************

                       Coordinates (Angstroms)
     ATOM                X               Y               Z
      1  H         0.8733099427   -0.5571933178    0.0000000000
      2  O        -0.0000058859    0.2658648082    0.0000000000
      3  H        -0.8731696108   -0.5573546793    0.0000000000

Z-matrix Print:
$molecule
0 1
O 
H  1 1.200044
H  1 1.200044 2 93.383372
$end


 --------------------------------------------------------------
             Orbital Energies (a.u.) and Symmetries
 --------------------------------------------------------------

 Alpha MOs, Restricted
 -- Occupied --                  
-20.287  -1.189  -0.492  -0.443  -0.395
  1 A'    2 A'    3 A'    4 A'    1 A"                                         
 -- Virtual --                   
  0.420   0.477
  5 A'    6 A'                                                                 

 Beta MOs, Restricted
 -- Occupied --                  
-20.287  -1.189  -0.492  -0.443  -0.395
  1 A'    2 A'    3 A'    4 A'    1 A"                                         
 -- Virtual --                   
  0.420   0.477
  5 A'    6 A'                                                                 
 --------------------------------------------------------------

          Ground-State Mulliken Net Atomic Charges

     Atom                 Charge (a.u.)
  ----------------------------------------
      1 H                     0.073326
      2 O                    -0.146652
      3 H                     0.073326
  ----------------------------------------
  Sum of atomic charges =     0.000000

 -----------------------------------------------------------------
                    Cartesian Multipole Moments
 -----------------------------------------------------------------
    Charge (ESU x 10^10)
                -0.0000
    Dipole Moment (Debye)
         X       0.0001      Y      -1.1883      Z       0.0000
       Tot       1.1883
    Quadrupole Moments (Debye-Ang)
        XX      -4.8642     XY       0.0000     YY      -5.5671
        XZ       0.0000     YZ       0.0000     ZZ      -6.2887
    Octopole Moments (Debye-Ang^2)
       XXX      -0.0000    XXY      -0.8457    XYY      -0.0001
       YYY      -1.2678    XXZ      -0.0000    XYZ       0.0000
       YYZ       0.0000    XZZ      -0.0001    YZZ      -0.4387
       ZZZ       0.0000
    Hexadecapole Moments (Debye-Ang^3)
      XXXX      -9.1722   XXXY      -0.0002   XXYY      -2.4977
      XYYY      -0.0000   YYYY      -7.4571   XXXZ       0.0000
      XXYZ       0.0000   XYYZ       0.0000   YYYZ       0.0000
      XXZZ      -2.2579   XYZZ      -0.0000   YYZZ      -1.8954
      XZZZ       0.0000   YZZZ       0.0000   ZZZZ      -3.4668
 -----------------------------------------------------------------
 Total job time:  15.98s(wall), 20.37s(cpu) 
 Tue May 24 17:49:16 2022

        *************************************************************
        *                                                           *
        *  Thank you very much for using Q-Chem.  Have a nice day.  *
        *                                                           *
        *************************************************************


