Jobname.Temp
FOPT      R                             STO-3G              
Number of atoms                            I                3
Charge                                     I                0
Multiplicity                               I                1
Number of electrons                        I               10
Number of alpha electrons                  I                5
Number of beta electrons                   I                5
Atomic numbers                             I   N=           3
           1           8           1
Current cartesian coordinates              R   N=           9
  1.47983867E+00 -9.16332629E-01 -5.51387794E-16 -3.62951360E-05  2.29111256E-01
  6.43047950E-17 -1.47954831E+00 -9.16557422E-01  1.29175768E-17
Nuclear charges                            R   N=           3
  1.00000000E+00  8.00000000E+00  1.00000000E+00
Number of basis functions                  I                7
Number of contracted shells                I                4
Number of primitive shells                 I               12
Highest angular momentum                   I                1
Largest degree of contraction              I                3
Shell types                                I   N=           4
           0           0          -1           0
Number of primitives per shell             I   N=           4
           3           3           3           3
Shell to atom map                          I   N=           4
           1           2           2           3
Primitive exponents                        R   N=          12
  3.42525091E+00  6.23913730E-01  1.68855400E-01  1.30709320E+02  2.38088610E+01
  6.44360830E+00  5.03315130E+00  1.16959610E+00  3.80389000E-01  3.42525091E+00
  6.23913730E-01  1.68855400E-01
Contraction coefficients                   R   N=          12
  1.54328971E-01  5.35328142E-01  4.44634542E-01  1.54328969E-01  5.35328136E-01
  4.44634536E-01 -9.99672287E-02  3.99512825E-01  7.00115461E-01  1.54328971E-01
  5.35328142E-01  4.44634542E-01
P(S=P) Contraction coefficients            R   N=          12
  0.00000000E+00  0.00000000E+00  0.00000000E+00  0.00000000E+00  0.00000000E+00
  0.00000000E+00  1.55916268E-01  6.07683714E-01  3.91957386E-01  0.00000000E+00
  0.00000000E+00  0.00000000E+00
Coordinates of each shell                  R   N=          12
  1.47983867E+00 -9.16332629E-01 -5.51387794E-16 -3.62951360E-05  2.29111256E-01
  6.43047950E-17 -3.62951360E-05  2.29111256E-01  6.43047950E-17 -1.47954831E+00
 -9.16557422E-01  1.29175768E-17
Overlap Matrix                             R   N=          28
  1.00000000E+00  4.98927228E-02  1.00000000E+00  4.53343482E-01  2.36703937E-01
  1.00000000E+00  3.01862146E-01  0.00000000E+00  0.00000000E+00  1.00000000E+00
 -2.33645515E-01 -2.31171306E-18  4.68117047E-17  0.00000000E+00  1.00000000E+00
 -1.25587830E-16 -7.23953796E-33  0.00000000E+00  0.00000000E+00  0.00000000E+00
  1.00000000E+00  2.33413667E-01  4.99021190E-02  4.53394133E-01 -3.01834750E-01
 -2.33727483E-01 -1.04834892E-17  1.00000000E+00
Core Hamiltonian Matrix                    R   N=          28
 -4.94189473E+00 -1.61556327E+00 -3.26840264E+01 -3.53279522E+00 -7.60407278E+00
 -9.30109046E+00 -1.94890980E+00 -6.65447357E-08 -4.21076749E-06 -7.57477052E+00
  1.57459799E+00  1.77584730E-02  2.11268997E-01 -1.64856416E-05 -7.51678501E+00
  8.30079469E-16  5.17002910E-18  6.15074529E-17  2.75965514E-17 -2.52516146E-17
 -7.43003752E+00 -1.46306409E+00 -1.61586705E+00 -3.53325857E+00  1.94876401E+00
  1.57516460E+00  8.69373269E-17 -4.94218272E+00
Orbital Coefficients CCMAN2 Alpha          R   N=          49
  5.61355773E-03 -9.94207180E-01 -2.58919722E-02  9.32761750E-08  4.03421528E-03
 -7.84850363E-18  5.61455046E-03 -1.56147794E-01  2.34131997E-01 -8.45730447E-01
  7.69608617E-06  1.18380029E-01 -1.16210888E-15 -1.56177538E-01 -4.47108006E-01
  1.33030783E-05 -7.20109186E-05 -6.05500840E-01 -1.06993206E-04  1.86645584E-15
  4.47115761E-01 -2.90800090E-01 -1.01333686E-01  5.25480674E-01 -1.11766565E-04
  7.69596810E-01  2.41914464E-14 -2.90742014E-01 -7.62574801E-15 -2.49864213E-15
  1.29580098E-14 -1.22541270E-15  1.81146357E-14 -1.00000000E+00 -5.88547934E-15
 -7.74253908E-01 -1.27666814E-01  8.28872902E-01  3.67790728E-04 -7.40516190E-01
  3.68984967E-16 -7.73809551E-01  8.09500344E-01 -4.53193166E-05  3.23833566E-04
 -9.72216381E-01 -3.47221595E-04  7.18748297E-17 -8.10037694E-01
Orbital Coefficients CCMAN2 Beta           R   N=          49
 -1.56147794E-01  2.34131997E-01 -8.45730447E-01  7.69608617E-06  1.18380029E-01
 -1.16210888E-15 -1.56177538E-01 -4.47108006E-01  1.33030783E-05 -7.20109186E-05
 -6.05500840E-01 -1.06993206E-04  1.86645584E-15  4.47115761E-01 -2.90800090E-01
 -1.01333686E-01  5.25480674E-01 -1.11766565E-04  7.69596810E-01  2.41914464E-14
 -2.90742014E-01 -7.62574801E-15 -2.49864213E-15  1.29580098E-14 -1.22541270E-15
  1.81146357E-14 -1.00000000E+00 -5.88547934E-15 -7.74253908E-01 -1.27666814E-01
  8.28872902E-01  3.67790728E-04 -7.40516190E-01  3.68984967E-16 -7.73809551E-01
  8.09500344E-01 -4.53193166E-05  3.23833566E-04 -9.72216381E-01 -3.47221595E-04
  7.18748297E-17 -8.10037694E-01  5.61355773E-03 -9.94207180E-01 -2.58919722E-02
  9.32761750E-08  4.03421528E-03 -7.84850363E-18  5.61455046E-03
Dipole_Data                                R   N=           3
  9.88542438E-05 -1.55901498E+00 -8.01262536E-15
Quadrupole_Data                            R   N=           6
 -4.49796317E+00  6.82484517E-05 -5.45670173E+00 -1.28654495E-18 -2.26891472E-15
 -6.13717593E+00
Octapole_Data                              R   N=          10
  9.34503595E-05 -4.54356490E-01 -9.45952480E-05 -2.54621619E-02 -9.37776772E-16
  1.25731638E-16 -1.34302689E-15 -3.31050742E-05  4.01787703E-02 -2.52792700E-15
Hexadecapole_Data                          R   N=          15
 -7.13808332E+00 -7.00670509E-05 -1.84999892E+00  8.46969547E-05 -5.17449090E+00
  3.94028804E-16 -2.82416800E-16  1.18154808E-16 -1.17645974E-15 -1.88530862E+00
  5.31015459E-06 -1.44562434E+00  5.59596082E-16 -1.15784497E-15 -3.28912178E+00
Current cartesian coordinates              R   N=           9
  1.57900198E+00 -1.00702338E+00  0.00000000E+00 -2.15596931E-05  4.10541481E-01
  0.00000000E+00 -1.57872635E+00 -1.00729690E+00  0.00000000E+00
Overlap Matrix                             R   N=          28
  1.00000000E+00  3.63702622E-02  1.00000000E+00  3.72929346E-01  2.36703937E-01
  1.00000000E+00  2.46950463E-01 -8.49826837E-23  0.00000000E+00  1.00000000E+00
 -2.21699228E-01  1.35252964E-17  7.38277428E-17  0.00000000E+00  1.00000000E+00
  0.00000000E+00  0.00000000E+00  0.00000000E+00  0.00000000E+00  0.00000000E+00
  1.00000000E+00  1.99836339E-01  3.63727492E-02  3.72945771E-01 -2.46915177E-01
 -2.21755084E-01  0.00000000E+00  1.00000000E+00
Core Hamiltonian Matrix                    R   N=          28
 -4.48133173E+00 -1.17384949E+00 -3.25577823E+01 -2.79380191E+00 -7.57419032E+00
 -9.18214610E+00 -1.53116994E+00 -1.04862782E-06 -1.33538167E-05 -7.42595176E+00
  1.42747934E+00  1.50730617E-02  1.84949360E-01 -4.55291573E-06 -7.40763625E+00
  0.00000000E+00  0.00000000E+00  0.00000000E+00  0.00000000E+00  0.00000000E+00
 -7.33141066E+00 -1.14217874E+00 -1.17392965E+00 -2.79394247E+00  1.53095276E+00
  1.42783717E+00  0.00000000E+00 -4.48141847E+00
Orbital Coefficients CCMAN2 Alpha          R   N=          49
  4.34522975E-03 -9.94491300E-01 -2.37130958E-02 -1.78415789E-07  3.12710588E-03
 -1.39807591E-16  4.34550039E-03 -1.40235297E-01  2.39976928E-01 -8.92897744E-01
 -3.17737657E-06  8.39488973E-02  5.57426862E-16 -1.40244150E-01 -4.54936736E-01
  7.03469698E-06 -3.66630479E-05 -6.23401155E-01 -9.62886606E-05 -3.01523852E-15
  4.54962575E-01 -3.43413936E-01 -9.50038069E-02  4.83286180E-01 -1.00072365E-04
  7.20756626E-01 -6.48861555E-14 -3.43367211E-01 -2.48712951E-14 -6.28971676E-15
  3.29452501E-14 -1.76520816E-15  4.42625738E-14  1.00000000E+00 -2.25949976E-14
  6.88519559E-01  1.05461093E-01 -6.26359018E-01 -2.10568538E-04  7.70524929E-01
  2.15457624E-15  6.88309580E-01  7.28071416E-01 -1.83486786E-05  1.14752393E-04
 -8.89485460E-01 -2.10610247E-04  4.07128722E-18 -7.28298563E-01
Orbital Coefficients CCMAN2 Beta           R   N=          49
 -1.40235297E-01  2.39976928E-01 -8.92897744E-01 -3.17737657E-06  8.39488973E-02
  5.57426862E-16 -1.40244150E-01 -4.54936736E-01  7.03469698E-06 -3.66630479E-05
 -6.23401155E-01 -9.62886606E-05 -3.01523852E-15  4.54962575E-01 -3.43413936E-01
 -9.50038069E-02  4.83286180E-01 -1.00072365E-04  7.20756626E-01 -6.48861555E-14
 -3.43367211E-01 -2.48712951E-14 -6.28971676E-15  3.29452501E-14 -1.76520816E-15
  4.42625738E-14  1.00000000E+00 -2.25949976E-14  6.88519559E-01  1.05461093E-01
 -6.26359018E-01 -2.10568538E-04  7.70524929E-01  2.15457624E-15  6.88309580E-01
  7.28071416E-01 -1.83486786E-05  1.14752393E-04 -8.89485460E-01 -2.10610247E-04
  4.07128722E-18 -7.28298563E-01  4.34522975E-03 -9.94491300E-01 -2.37130958E-02
 -1.78415789E-07  3.12710588E-03 -1.39807591E-16  4.34550039E-03
Dipole_Data                                R   N=           3
  9.96640980E-05 -1.33393847E+00  5.40561826E-15
Quadrupole_Data                            R   N=           6
 -4.76624509E+00  5.18668341E-05 -5.54148312E+00 -5.31744158E-16  6.43446919E-15
 -6.24198121E+00
Octapole_Data                              R   N=          10
  4.82623719E-06 -7.08381198E-01 -1.25120264E-04 -8.72902576E-01  9.45778387E-16
 -1.01933315E-17  3.45037399E-15 -5.90112513E-05 -2.79159688E-01  2.27880145E-15
Hexadecapole_Data                          R   N=          15
 -8.39106330E+00 -1.35644067E-04 -2.24083825E+00  3.18782000E-05 -6.56659294E+00
 -2.88961518E-16  6.93461421E-16 -9.82375475E-17  3.00623166E-15 -2.11270554E+00
 -1.86116883E-05 -1.72127058E+00 -2.41250574E-16  2.16299062E-15 -3.41023094E+00
Current cartesian coordinates              R   N=           9
  1.63433537E+00 -1.05835648E+00  0.00000000E+00 -1.26349473E-05  5.13235658E-01
  0.00000000E+00 -1.63406867E+00 -1.05865797E+00  0.00000000E+00
Overlap Matrix                             R   N=          28
  1.00000000E+00  3.03317781E-02  1.00000000E+00  3.30748283E-01  2.36703937E-01
  1.00000000E+00  2.17949693E-01  1.05388227E-21 -1.33240760E-21  1.00000000E+00
 -2.09580838E-01 -3.59713050E-17  0.00000000E+00  0.00000000E+00  1.00000000E+00
  0.00000000E+00  0.00000000E+00  0.00000000E+00  0.00000000E+00  0.00000000E+00
  1.00000000E+00  1.82889092E-01  3.03318326E-02  3.30748686E-01 -2.17911107E-01
 -2.09621379E-01  0.00000000E+00  1.00000000E+00
Core Hamiltonian Matrix                    R   N=          28
 -4.25117778E+00 -9.77386779E-01 -3.24973320E+01 -2.42691848E+00 -7.55988150E+00
 -9.12361065E+00 -1.32185309E+00 -1.25858362E-06 -1.56121070E-05 -7.35673914E+00
  1.31673778E+00  1.36973269E-02  1.69827856E-01 -5.79149106E-07 -7.35113473E+00
  0.00000000E+00  0.00000000E+00  0.00000000E+00  0.00000000E+00  0.00000000E+00
 -7.28199283E+00 -9.93828563E-01 -9.77388531E-01 -2.42692181E+00  1.32161088E+00
  1.31698393E+00  0.00000000E+00 -4.25117985E+00
Orbital Coefficients CCMAN2 Alpha          R   N=          49
  3.75647681E-03 -9.94618663E-01 -2.28250253E-02 -2.43460288E-07  2.66011982E-03
 -6.42593367E-16  3.75648301E-03 -1.29474923E-01  2.43575694E-01 -9.17593393E-01
 -5.98973458E-06  6.58715610E-02  9.96194398E-16 -1.29475127E-01 -4.56163284E-01
  2.61725709E-07 -1.33735253E-06 -6.37520951E-01 -6.06091349E-05  2.66293164E-15
  4.56164788E-01 -3.68330516E-01 -8.88641369E-02  4.47771499E-01 -6.60950122E-05
  6.98561865E-01 -2.05916039E-14 -3.68328366E-01 -6.91308606E-15 -2.20465491E-15
  1.08125296E-14  1.79735259E-15  1.37666724E-14  1.00000000E+00 -9.24160317E-15
  6.49133535E-01  9.37350887E-02 -5.34822835E-01 -7.64803090E-05  7.80065299E-01
  1.08108816E-15  6.49126797E-01  6.95925153E-01 -5.28779475E-07  3.12496189E-06
 -8.51531499E-01 -8.28769114E-05  1.42488798E-16 -6.95932062E-01
Orbital Coefficients CCMAN2 Beta           R   N=          49
 -1.29474923E-01  2.43575694E-01 -9.17593393E-01 -5.98973458E-06  6.58715610E-02
  9.96194398E-16 -1.29475127E-01 -4.56163284E-01  2.61725709E-07 -1.33735253E-06
 -6.37520951E-01 -6.06091349E-05  2.66293164E-15  4.56164788E-01 -3.68330516E-01
 -8.88641369E-02  4.47771499E-01 -6.60950122E-05  6.98561865E-01 -2.05916039E-14
 -3.68328366E-01 -6.91308606E-15 -2.20465491E-15  1.08125296E-14  1.79735259E-15
  1.37666724E-14  1.00000000E+00 -9.24160317E-15  6.49133535E-01  9.37350887E-02
 -5.34822835E-01 -7.64803090E-05  7.80065299E-01  1.08108816E-15  6.49126797E-01
  6.95925153E-01 -5.28779475E-07  3.12496189E-06 -8.51531499E-01 -8.28769114E-05
  1.42488798E-16 -6.95932062E-01  3.75647681E-03 -9.94618663E-01 -2.28250253E-02
 -2.43460288E-07  2.66011982E-03 -6.42593367E-16  3.75648301E-03
Dipole_Data                                R   N=           3
  1.09461234E-04 -1.19199677E+00  4.75315734E-15
Quadrupole_Data                            R   N=           6
 -4.89243885E+00  3.96598230E-05 -5.56101437E+00  7.21581923E-17  2.56652516E-15
 -6.28870334E+00
Octapole_Data                              R   N=          10
 -3.53447086E-05 -8.54356079E-01 -1.37813898E-04 -1.33368573E+00  7.26100670E-16
  2.29220367E-18  1.76330387E-15 -7.39293596E-05 -4.61768213E-01  1.92682862E-15
Hexadecapole_Data                          R   N=          15
 -9.09332200E+00 -1.93619940E-04 -2.49852039E+00 -1.78031118E-05 -7.55137533E+00
  4.17198514E-17  2.90650416E-16  1.42600266E-17  1.31407965E-15 -2.23764584E+00
 -3.78464663E-05 -1.91377095E+00  3.42127944E-17  9.04503881E-16 -3.46670474E+00
Current cartesian coordinates              R   N=           9
  1.63690091E+00 -1.05761023E+00  0.00000000E+00 -1.19820396E-05  5.11744125E-01
  0.00000000E+00 -1.63663486E+00 -1.05791269E+00  0.00000000E+00
Overlap Matrix                             R   N=          28
  1.00000000E+00  3.03204900E-02  1.00000000E+00  3.30664722E-01  2.36703937E-01
  1.00000000E+00  2.18219137E-01  4.90299017E-22 -3.31211713E-21  1.00000000E+00
 -2.09212815E-01 -3.87762168E-17  1.10074971E-16 -3.81733696E-37  1.00000000E+00
  0.00000000E+00  0.00000000E+00  0.00000000E+00  0.00000000E+00  0.00000000E+00
  1.00000000E+00  1.82132907E-01  3.03204896E-02  3.30664720E-01 -2.18180473E-01
 -2.09253134E-01  0.00000000E+00  1.00000000E+00
Core Hamiltonian Matrix                    R   N=          28
 -4.25027498E+00 -9.77018611E-01 -3.24972150E+01 -2.42608296E+00 -7.55985379E+00
 -9.12349649E+00 -1.32341267E+00 -1.26326535E-06 -1.56629688E-05 -7.35683090E+00
  1.31425156E+00  1.36723840E-02  1.69521557E-01 -5.56984984E-07 -7.35079859E+00
  0.00000000E+00  0.00000000E+00  0.00000000E+00  0.00000000E+00  0.00000000E+00
 -7.28189580E+00 -9.90051025E-01 -9.77018601E-01 -2.42608294E+00  1.32316979E+00
  1.31449608E+00  0.00000000E+00 -4.25027497E+00
Orbital Coefficients CCMAN2 Alpha          R   N=          49
 -3.75710574E-03  9.94618607E-01  2.28250457E-02  2.45549167E-07 -2.65753027E-03
 -3.14356387E-16 -3.75710571E-03  1.29458637E-01 -2.43588926E-01  9.17661821E-01
  6.07762639E-06 -6.57746181E-02 -3.93825503E-16  1.29458636E-01  4.56203075E-01
  1.48633738E-09 -7.59871562E-09  6.37097668E-01  5.88533328E-05  7.31733666E-15
 -4.56203066E-01  3.68211228E-01  8.87842524E-02 -4.47393291E-01  6.45804723E-05
 -6.99075286E-01  1.13060385E-14  3.68211240E-01  7.40820593E-15  1.18759398E-15
 -5.05061090E-15  4.00650985E-15 -7.76417634E-15 -1.00000000E+00  5.99087858E-16
 -6.49370560E-01 -9.37779267E-02  5.34992570E-01  7.19863518E-05 -7.79411220E-01
 -1.90165262E-16 -6.49370599E-01  6.95544145E-01  3.04388856E-09 -1.79862270E-08
 -8.51983411E-01 -7.86926812E-05  6.83673502E-16 -6.95544105E-01
Orbital Coefficients CCMAN2 Beta           R   N=          49
  1.29458637E-01 -2.43588926E-01  9.17661821E-01  6.07762639E-06 -6.57746181E-02
 -3.93825503E-16  1.29458636E-01  4.56203075E-01  1.48633738E-09 -7.59871562E-09
  6.37097668E-01  5.88533328E-05  7.31733666E-15 -4.56203066E-01  3.68211228E-01
  8.87842524E-02 -4.47393291E-01  6.45804723E-05 -6.99075286E-01  1.13060385E-14
  3.68211240E-01  7.40820593E-15  1.18759398E-15 -5.05061090E-15  4.00650985E-15
 -7.76417634E-15 -1.00000000E+00  5.99087858E-16 -6.49370560E-01 -9.37779267E-02
  5.34992570E-01  7.19863518E-05 -7.79411220E-01 -1.90165262E-16 -6.49370599E-01
  6.95544145E-01  3.04388856E-09 -1.79862270E-08 -8.51983411E-01 -7.86926812E-05
  6.83673502E-16 -6.95544105E-01 -3.75710574E-03  9.94618607E-01  2.28250457E-02
  2.45549167E-07 -2.65753027E-03 -3.14356387E-16 -3.75710571E-03
Dipole_Data                                R   N=           3
  1.10061096E-04 -1.19119334E+00  2.64563743E-15
Quadrupole_Data                            R   N=           6
 -4.88828669E+00  3.99939274E-05 -5.56197676E+00 -1.05112750E-15  1.49894425E-15
 -6.28877746E+00
Octapole_Data                              R   N=          10
 -3.74122787E-05 -8.53278494E-01 -1.39205404E-04 -1.32433188E+00  4.21252857E-17
 -3.02878827E-16  6.72291433E-16 -7.51014967E-05 -4.58536187E-01  5.87107655E-16
Hexadecapole_Data                          R   N=          15
 -9.10672043E+00 -1.96598570E-04 -2.49882254E+00 -2.08593175E-05 -7.53854645E+00
 -3.32814237E-16  1.87611851E-16 -1.93231265E-16  6.69589217E-16 -2.24096849E+00
 -3.90297722E-05 -1.91127497E+00 -3.40737122E-16  5.03076207E-16 -3.46681239E+00
Current cartesian coordinates              R   N=           9
  1.65031661E+00 -1.05294277E+00  0.00000000E+00 -1.11228324E-05  5.02411674E-01
  0.00000000E+00 -1.65005143E+00 -1.05324770E+00  0.00000000E+00
Overlap Matrix                             R   N=          28
  1.00000000E+00  3.03175714E-02  1.00000000E+00  3.30643115E-01  2.36703937E-01
  1.00000000E+00  2.19988564E-01  2.64297169E-22 -1.23267481E-21  1.00000000E+00
 -2.07328631E-01 -4.63352574E-18  0.00000000E+00  0.00000000E+00  1.00000000E+00
  0.00000000E+00  0.00000000E+00  0.00000000E+00  0.00000000E+00  0.00000000E+00
  1.00000000E+00  1.78220800E-01  3.03175714E-02  3.30643115E-01 -2.19950249E-01
 -2.07369278E-01  0.00000000E+00  1.00000000E+00
Core Hamiltonian Matrix                    R   N=          28
 -4.24771188E+00 -9.76916533E-01 -3.24971848E+01 -2.42523325E+00 -7.55984664E+00
 -9.12346705E+00 -1.33404073E+00 -1.25182873E-06 -1.55212819E-05 -7.35802726E+00
  1.30181079E+00  1.35490459E-02  1.67993066E-01 -7.84242279E-07 -7.34953920E+00
  0.00000000E+00  0.00000000E+00  0.00000000E+00  0.00000000E+00  0.00000000E+00
 -7.28187077E+00 -9.71102055E-01 -9.76916533E-01 -2.42523325E+00  1.33380015E+00
  1.30205728E+00  0.00000000E+00 -4.24771188E+00
Orbital Coefficients CCMAN2 Alpha          R   N=          49
  3.76620642E-03 -9.94617061E-01 -2.28335043E-02 -2.44643309E-07  2.64787434E-03
  8.75164437E-17  3.76620642E-03 -1.29492909E-01  2.43622305E-01 -9.17780157E-01
 -6.04483923E-06  6.54258241E-02 -1.50243650E-16 -1.29492909E-01 -4.56398615E-01
  3.49120871E-11 -1.78469003E-10 -6.34654265E-01 -5.86374982E-05  3.97777473E-15
  4.56398616E-01 -3.67320671E-01 -8.84214127E-02  4.45739742E-01 -6.48677436E-05
  7.02086903E-01  2.02837006E-15 -3.67320670E-01  3.40302035E-15  2.26081627E-16
 -1.21161093E-15  1.68458244E-15 -1.46749981E-15  1.00000000E+00 -1.25454794E-15
  6.51042934E-01  9.41309789E-02 -5.36804820E-01 -7.16728838E-05  7.75737498E-01
  2.11175913E-16  6.51042934E-01  6.93793668E-01 -7.05243797E-11  4.17574114E-10
 -8.54805789E-01 -7.89781673E-05 -2.39848340E-16 -6.93793669E-01
Orbital Coefficients CCMAN2 Beta           R   N=          49
 -1.29492909E-01  2.43622305E-01 -9.17780157E-01 -6.04483923E-06  6.54258241E-02
 -1.50243650E-16 -1.29492909E-01 -4.56398615E-01  3.49120871E-11 -1.78469003E-10
 -6.34654265E-01 -5.86374982E-05  3.97777473E-15  4.56398616E-01 -3.67320671E-01
 -8.84214127E-02  4.45739742E-01 -6.48677436E-05  7.02086903E-01  2.02837006E-15
 -3.67320670E-01  3.40302035E-15  2.26081627E-16 -1.21161093E-15  1.68458244E-15
 -1.46749981E-15  1.00000000E+00 -1.25454794E-15  6.51042934E-01  9.41309789E-02
 -5.36804820E-01 -7.16728838E-05  7.75737498E-01  2.11175913E-16  6.51042934E-01
  6.93793668E-01 -7.05243797E-11  4.17574114E-10 -8.54805789E-01 -7.89781673E-05
 -2.39848340E-16 -6.93793669E-01  3.76620642E-03 -9.94617061E-01 -2.28335043E-02
 -2.44643309E-07  2.64787434E-03  8.75164437E-17  3.76620642E-03
Dipole_Data                                R   N=           3
  1.09789964E-04 -1.18830104E+00  1.72692040E-16
Quadrupole_Data                            R   N=           6
 -4.86420972E+00  4.27439868E-05 -5.56707054E+00  8.01051755E-16  1.40268530E-16
 -6.28871963E+00
Octapole_Data                              R   N=          10
 -3.81654018E-05 -8.45651054E-01 -1.43113603E-04 -1.26776116E+00 -2.52435148E-17
  3.88903989E-16  4.00682118E-17 -7.69249252E-05 -4.38732945E-01  1.34769431E-18
Hexadecapole_Data                          R   N=          15
 -9.17216333E+00 -2.02511755E-04 -2.49772158E+00 -2.70142406E-05 -7.45706565E+00
  8.54828045E-17  1.84620639E-17  1.35034775E-16  5.94534572E-17 -2.25785434E+00
 -4.16799553E-05 -1.89542866E+00  1.64070807E-16  4.53259437E-17 -3.46683818E+00
Number of independent functions            I                7
Alpha MO coefficients                      R   N=          49
  3.76620642E-03 -9.94617061E-01 -2.28335043E-02 -2.44643309E-07  2.64787434E-03
  8.75164437E-17  3.76620642E-03 -1.29492909E-01  2.43622305E-01 -9.17780157E-01
 -6.04483923E-06  6.54258241E-02 -1.50243650E-16 -1.29492909E-01 -4.56398615E-01
  3.49120871E-11 -1.78469003E-10 -6.34654265E-01 -5.86374982E-05  3.97777473E-15
  4.56398616E-01 -3.67320671E-01 -8.84214127E-02  4.45739742E-01 -6.48677436E-05
  7.02086903E-01  2.02837006E-15 -3.67320670E-01  3.40302035E-15  2.26081627E-16
 -1.21161093E-15  1.68458244E-15 -1.46749981E-15  1.00000000E+00 -1.25454794E-15
  6.51042934E-01  9.41309789E-02 -5.36804820E-01 -7.16728838E-05  7.75737498E-01
  2.11175913E-16  6.51042934E-01  6.93793668E-01 -7.05243797E-11  4.17574114E-10
 -8.54805789E-01 -7.89781673E-05 -2.39848340E-16 -6.93793669E-01
Alpha Orbital Energies                     R   N=           7
 -2.02873951E+01 -1.18897138E+00 -4.92031637E-01 -4.42745630E-01 -3.94619213E-01
  4.20340852E-01  4.76983331E-01
Total SCF Density                          R   N=          28
  7.75176459E-01  3.78920599E-03  2.11464450E+00 -1.34831955E-01 -4.89882363E-01
  2.13056066E+00  5.16641741E-01  8.16244400E-06 -4.22838795E-05  8.25127576E-01
 -4.86125278E-01 -8.83453855E-02  4.57655359E-01 -1.33792801E-05  9.69936810E-01
  9.97625470E-16 -1.71569563E-16 -1.19885976E-16 -1.66272057E-15 -3.25725832E-17
  1.99834309E+00 -1.03685234E-01  3.78920599E-03 -1.34831955E-01 -5.16551903E-01
 -4.86220738E-01 -7.56543922E-16  7.75176459E-01
Pure Switching                             I                1
Dipole_Data                                R   N=           3
  1.09789964E-04 -1.18830104E+00  1.72692040E-16
Quadrupole_Data                            R   N=           6
 -4.86420972E+00  4.27439868E-05 -5.56707054E+00  8.01051755E-16  1.40268530E-16
 -6.28871963E+00
Octapole_Data                              R   N=          10
 -3.81654018E-05 -8.45651054E-01 -1.43113603E-04 -1.26776116E+00 -2.52435148E-17
  3.88903989E-16  4.00682118E-17 -7.69249252E-05 -4.38732945E-01  1.34769431E-18
Hexadecapole_Data                          R   N=          15
 -9.17216333E+00 -2.02511755E-04 -2.49772158E+00 -2.70142406E-05 -7.45706565E+00
  8.54828045E-17  1.84620639E-17  1.35034775E-16  5.94534572E-17 -2.25785434E+00
 -4.16799553E-05 -1.89542866E+00  1.64070807E-16  4.53259437E-17 -3.46683818E+00
