Jobname.Temp
SP        R                             STO-3G              
Number of atoms                            I                3
Charge                                     I                0
Multiplicity                               I                1
Number of electrons                        I               10
Number of alpha electrons                  I                5
Number of beta electrons                   I                5
Atomic numbers                             I   N=           3
           8           1           1
Current cartesian coordinates              R   N=           9
 -5.55111512E-17  2.68863939E-17  2.77661517E-01 -1.79302409E+00 -1.92695728E-16
 -1.11064607E+00  1.79302409E+00 -2.23954230E-17 -1.11064607E+00
Nuclear charges                            R   N=           3
  8.00000000E+00  1.00000000E+00  1.00000000E+00
Number of basis functions                  I                7
Number of contracted shells                I                4
Number of primitive shells                 I               12
Highest angular momentum                   I                1
Largest degree of contraction              I                3
Shell types                                I   N=           4
           0          -1           0           0
Number of primitives per shell             I   N=           4
           3           3           3           3
Shell to atom map                          I   N=           4
           1           1           2           3
Primitive exponents                        R   N=          12
  1.30709320E+02  2.38088610E+01  6.44360830E+00  5.03315130E+00  1.16959610E+00
  3.80389000E-01  3.42525091E+00  6.23913730E-01  1.68855400E-01  3.42525091E+00
  6.23913730E-01  1.68855400E-01
Contraction coefficients                   R   N=          12
  1.54328969E-01  5.35328136E-01  4.44634536E-01 -9.99672287E-02  3.99512825E-01
  7.00115461E-01  1.54328971E-01  5.35328142E-01  4.44634542E-01  1.54328971E-01
  5.35328142E-01  4.44634542E-01
P(S=P) Contraction coefficients            R   N=          12
  0.00000000E+00  0.00000000E+00  0.00000000E+00  1.55916268E-01  6.07683714E-01
  3.91957386E-01  0.00000000E+00  0.00000000E+00  0.00000000E+00  0.00000000E+00
  0.00000000E+00  0.00000000E+00
Coordinates of each shell                  R   N=          12
 -5.55111512E-17  2.68863939E-17  2.77661517E-01 -5.55111512E-17  2.68863939E-17
  2.77661517E-01 -1.79302409E+00 -1.92695728E-16 -1.11064607E+00  1.79302409E+00
 -2.23954230E-17 -1.11064607E+00
Overlap Matrix                             R   N=          28
  1.00000000E+00  2.36703937E-01  1.00000000E+00  4.11794949E-34  0.00000000E+00
  1.00000000E+00 -2.83810241E-33  2.63914139E-33  0.00000000E+00  1.00000000E+00
 -1.70713455E-17  4.93489089E-17  0.00000000E+00  1.73592387E-49  1.00000000E+00
  3.03206852E-02  3.30666168E-01 -2.39031915E-01 -2.92729669E-17 -1.85078283E-01
  1.00000000E+00  3.03206852E-02  3.30666168E-01  2.39031915E-01 -6.56986546E-18
 -1.85078283E-01  1.40694996E-01  1.00000000E+00
Core Hamiltonian Matrix                    R   N=          28
 -3.24972170E+01 -7.55985427E+00 -9.12349846E+00  0.00000000E+00  0.00000000E+00
 -7.37182403E+00  0.00000000E+00  0.00000000E+00  0.00000000E+00 -7.28189747E+00
  1.20940028E-02  1.49951433E-01  0.00000000E+00  0.00000000E+00 -7.33580968E+00
 -9.76938180E-01 -2.41865408E+00  1.44846145E+00 -1.29035030E-17  1.15681337E+00
 -4.22391856E+00 -9.76938180E-01 -2.41865408E+00 -1.44846145E+00 -2.89599202E-18
  1.15681337E+00 -7.89205010E-01 -4.22391856E+00
Orbital Coefficients CCMAN2 Alpha          R   N=          49
 -9.94598733E-01 -2.29281854E-02 -7.10044003E-16  1.19585537E-17  2.52006878E-03
  3.84932340E-03  3.84932340E-03  2.43857731E-01 -9.18321712E-01  4.23272528E-16
  5.84058158E-17  6.14904072E-02 -1.30505133E-01 -1.30505133E-01 -8.46607361E-02
  4.28690812E-01  1.55847557E-14 -6.32404826E-15  7.33859845E-01 -3.58070791E-01
 -3.58070791E-01  2.07993345E-15 -9.89486271E-15  6.11175066E-01  3.11792952E-16
 -1.91305305E-14 -4.57223564E-01  4.57223564E-01 -6.52078797E-16  2.81656102E-15
 -3.37467897E-17  1.00000000E+00  4.76129477E-15 -2.16038935E-15 -2.39492101E-15
 -9.78486499E-02  5.55430169E-01 -1.31561428E-14 -3.18993169E-17 -7.33750274E-01
 -6.66273155E-01 -6.66273155E-01 -1.53523028E-15  8.43769499E-15  8.83087919E-01
 -2.18052473E-16 -1.14214194E-14  6.79748691E-01 -6.79748691E-01
Orbital Coefficients CCMAN2 Beta           R   N=          49
  2.43857731E-01 -9.18321712E-01  4.23272528E-16  5.84058158E-17  6.14904072E-02
 -1.30505133E-01 -1.30505133E-01 -8.46607361E-02  4.28690812E-01  1.55847557E-14
 -6.32404826E-15  7.33859845E-01 -3.58070791E-01 -3.58070791E-01  2.07993345E-15
 -9.89486271E-15  6.11175066E-01  3.11792952E-16 -1.91305305E-14 -4.57223564E-01
  4.57223564E-01 -6.52078797E-16  2.81656102E-15 -3.37467897E-17  1.00000000E+00
  4.76129477E-15 -2.16038935E-15 -2.39492101E-15 -9.78486499E-02  5.55430169E-01
 -1.31561428E-14 -3.18993169E-17 -7.33750274E-01 -6.66273155E-01 -6.66273155E-01
 -1.53523028E-15  8.43769499E-15  8.83087919E-01 -2.18052473E-16 -1.14214194E-14
  6.79748691E-01 -6.79748691E-01 -9.94598733E-01 -2.29281854E-02 -7.10044003E-16
  1.19585537E-17  2.52006878E-03  3.84932340E-03  3.84932340E-03
EOMEE transition A1 Excitation Energies    R   N=           1
  4.38926168E-01
Number of Active Occ                       I                8
Number of Active Vir                       I                4
Alpha Amplitudes                           R   N=           4
  6.21588049E-01  2.43287846E-01  6.21588049E-01  2.43287846E-01
Alpha J Indexes                            I   N=           2
           0           4
Alpha I Indexes                            I   N=           4
           4           9          22          27
EOMEE transition A2 Excitation Energies    R   N=           1
  3.14895803E-01
Number of Active Occ                       I                8
Number of Active Vir                       I                4
Alpha Amplitudes                           R   N=           2
  6.67653555E-01  6.67653555E-01
Alpha J Indexes                            I   N=           2
           0           2
Alpha I Indexes                            I   N=           2
          13          31
EOMEE transition B1 Excitation Energies    R   N=           1
  4.74993216E-01
Number of Active Occ                       I                8
Number of Active Vir                       I                4
Alpha Amplitudes                           R   N=           4
 -5.40896019E-01 -3.85703502E-01 -5.40896019E-01 -3.85703502E-01
Alpha J Indexes                            I   N=           2
           0           4
Alpha I Indexes                            I   N=           4
           5           8          23          26
EOMEE transition B2 Excitation Energies    R   N=           1
  2.49578033E-01
Number of Active Occ                       I                8
Number of Active Vir                       I                4
Alpha Amplitudes                           R   N=           2
  6.67186790E-01  6.67186790E-01
Alpha J Indexes                            I   N=           2
           0           2
Alpha I Indexes                            I   N=           2
          12          30
EOMEE transition A1 Excitation Energies    R   N=           1
  2.89003615E-01
Number of Active Occ                       I                8
Number of Active Vir                       I                4
Alpha Amplitudes                           R   N=           4
 -6.51435503E-01  2.56360341E-01  6.51435503E-01 -2.56360341E-01
Alpha J Indexes                            I   N=           2
           0           4
Alpha I Indexes                            I   N=           4
           4           9          22          27
EOMEE transition A2 Excitation Energies    R   N=           1
  2.84295381E-01
Number of Active Occ                       I                8
Number of Active Vir                       I                4
Alpha Amplitudes                           R   N=           2
  6.75779002E-01 -6.75779002E-01
Alpha J Indexes                            I   N=           2
           0           2
Alpha I Indexes                            I   N=           2
          13          31
EOMEE transition B1 Excitation Energies    R   N=           1
  3.42943647E-01
Number of Active Occ                       I                8
Number of Active Vir                       I                4
Alpha Amplitudes                           R   N=           4
  5.30461519E-01 -4.58491498E-01 -5.30461519E-01  4.58491498E-01
Alpha J Indexes                            I   N=           2
           0           4
Alpha I Indexes                            I   N=           4
           5           8          23          26
EOMEE transition B2 Excitation Energies    R   N=           1
  2.09939580E-01
Number of Active Occ                       I                8
Number of Active Vir                       I                4
Alpha Amplitudes                           R   N=           2
  6.79452254E-01 -6.79452254E-01
Alpha J Indexes                            I   N=           2
           0           2
Alpha I Indexes                            I   N=           2
          12          30
Number of independent functions            I                7
Alpha MO coefficients                      R   N=          49
 -9.94598733E-01 -2.29281854E-02 -7.10044003E-16  1.19585537E-17  2.52006878E-03
  3.84932340E-03  3.84932340E-03  2.43857731E-01 -9.18321712E-01  4.23272528E-16
  5.84058158E-17  6.14904072E-02 -1.30505133E-01 -1.30505133E-01  2.07993345E-15
 -9.89486271E-15  6.11175066E-01  3.11792952E-16 -1.91305305E-14 -4.57223564E-01
  4.57223564E-01 -8.46607361E-02  4.28690812E-01  1.55847557E-14 -6.32404826E-15
  7.33859845E-01 -3.58070791E-01 -3.58070791E-01 -6.52078797E-16  2.81656102E-15
 -3.37467897E-17  1.00000000E+00  4.76129477E-15 -2.16038935E-15 -2.39492101E-15
 -9.78486499E-02  5.55430169E-01 -1.31561428E-14 -3.18993169E-17 -7.33750274E-01
 -6.66273155E-01 -6.66273155E-01 -1.53523028E-15  8.43769499E-15  8.83087919E-01
 -2.18052473E-16 -1.14214194E-14  6.79748691E-01 -6.79748691E-01
Alpha Orbital Energies                     R   N=           7
 -2.02774682E+01 -1.18208783E+00 -5.06736799E-01 -4.21422674E-01 -3.88862240E-01
  4.02258569E-01  5.00868061E-01
Total SCF Density                          R   N=          28
  2.11374673E+00 -4.85717870E-01  2.11210535E+00  1.48440716E-15  6.84957259E-16
  7.78430368E-01 -2.02062821E-16 -1.11106316E-17  2.88366796E-16  1.99831581E+00
 -9.11353411E-02  4.72580904E-01 -1.48062946E-15  7.67905302E-16  1.03784528E+00
  5.91756616E-04 -1.22764037E-01 -4.99515850E-01 -4.18981436E-17 -4.97974103E-01
  7.66746541E-01  5.91756616E-04 -1.22764037E-01  4.99515850E-01  5.82909915E-17
 -4.97974103E-01 -9.93203968E-02  7.66746541E-01
Pure Switching                             I                1
Dipole_Data                                R   N=           3
  1.76515415E-14  1.21169303E-18 -1.14888290E+00
Quadrupole_Data                            R   N=           6
 -4.59435799E+00 -2.13623077E-16 -6.28696540E+00 -1.05122556E-14 -5.64783444E-16
 -5.47975296E+00
Octapole_Data                              R   N=          10
  2.92503503E-14 -5.76469588E-17  3.45045864E-15  5.37081397E-17 -4.58473603E-01
 -6.81686809E-17  1.75359320E-01  1.05941450E-14 -1.92529072E-16  4.16952374E-01
Hexadecapole_Data                          R   N=          15
 -9.85263114E+00 -2.24131567E-16 -2.44592394E+00 -2.85507539E-16 -3.46667150E+00
 -1.72821671E-14 -6.75726862E-17 -2.18644594E-15 -3.79255320E-16 -2.43594116E+00
 -7.44072201E-17 -1.72294121E+00 -1.03882812E-14 -3.91677631E-16 -6.55425439E+00
