Jobname.Temp
SP        R                             STO-3G              
Number of atoms                            I                3
Charge                                     I                0
Multiplicity                               I                1
Number of electrons                        I               10
Number of alpha electrons                  I                5
Number of beta electrons                   I                5
Atomic numbers                             I   N=           3
           8           1           1
Current cartesian coordinates              R   N=           9
 -6.28871184E-17  2.68863939E-17  2.77661517E-01 -1.79302409E+00 -1.92695728E-16
 -1.11064607E+00  1.79302409E+00 -2.23954230E-17 -1.11064607E+00
Nuclear charges                            R   N=           3
  8.00000000E+00  1.00000000E+00  1.00000000E+00
Number of basis functions                  I                7
Number of contracted shells                I                4
Number of primitive shells                 I               12
Highest angular momentum                   I                1
Largest degree of contraction              I                3
Shell types                                I   N=           4
           0          -1           0           0
Number of primitives per shell             I   N=           4
           3           3           3           3
Shell to atom map                          I   N=           4
           1           1           2           3
Primitive exponents                        R   N=          12
  1.30709320E+02  2.38088610E+01  6.44360830E+00  5.03315130E+00  1.16959610E+00
  3.80389000E-01  3.42525091E+00  6.23913730E-01  1.68855400E-01  3.42525091E+00
  6.23913730E-01  1.68855400E-01
Contraction coefficients                   R   N=          12
  1.54328969E-01  5.35328136E-01  4.44634536E-01 -9.99672287E-02  3.99512825E-01
  7.00115461E-01  1.54328971E-01  5.35328142E-01  4.44634542E-01  1.54328971E-01
  5.35328142E-01  4.44634542E-01
P(S=P) Contraction coefficients            R   N=          12
  0.00000000E+00  0.00000000E+00  0.00000000E+00  1.55916268E-01  6.07683714E-01
  3.91957386E-01  0.00000000E+00  0.00000000E+00  0.00000000E+00  0.00000000E+00
  0.00000000E+00  0.00000000E+00
Coordinates of each shell                  R   N=          12
 -6.28871184E-17  2.68863939E-17  2.77661517E-01 -6.28871184E-17  2.68863939E-17
  2.77661517E-01 -1.79302409E+00 -1.92695728E-16 -1.11064607E+00  1.79302409E+00
 -2.23954230E-17 -1.11064607E+00
Overlap Matrix                             R   N=          28
  1.00000000E+00  2.36703937E-01  1.00000000E+00  4.30502487E-33 -1.09576590E-32
  1.00000000E+00 -2.83810241E-33  2.63914139E-33 -3.85452529E-65  1.00000000E+00
 -1.70713455E-17  4.93489089E-17 -6.94369547E-49  1.73592387E-49  1.00000000E+00
  3.03206852E-02  3.30666168E-01 -2.39031915E-01 -2.92729669E-17 -1.85078283E-01
  1.00000000E+00  3.03206852E-02  3.30666168E-01  2.39031915E-01 -6.56986546E-18
 -1.85078283E-01  1.40694996E-01  1.00000000E+00
Core Hamiltonian Matrix                    R   N=          28
 -3.24972170E+01 -7.55985427E+00 -9.12349846E+00  0.00000000E+00  0.00000000E+00
 -7.37182403E+00  0.00000000E+00  0.00000000E+00  0.00000000E+00 -7.28189747E+00
  1.20940028E-02  1.49951433E-01  0.00000000E+00  0.00000000E+00 -7.33580968E+00
 -9.76938180E-01 -2.41865408E+00  1.44846145E+00 -1.29035030E-17  1.15681337E+00
 -4.22391856E+00 -9.76938180E-01 -2.41865408E+00 -1.44846145E+00 -2.89599202E-18
  1.15681337E+00 -7.89205010E-01 -4.22391856E+00
Orbital Coefficients CCMAN2 Alpha          R   N=          49
 -9.94598733E-01 -2.29281854E-02  2.53157987E-16 -7.87903123E-17  2.52006878E-03
  3.84932340E-03  3.84932340E-03 -2.43857731E-01  9.18321712E-01 -3.11914736E-16
  1.48236074E-17 -6.14904072E-02  1.30505133E-01  1.30505133E-01  8.46607361E-02
 -4.28690812E-01 -6.70801397E-15  4.43426484E-15 -7.33859845E-01  3.58070791E-01
  3.58070791E-01 -1.08407991E-15  4.63152028E-15 -6.11175066E-01  5.62455710E-16
  7.64940396E-15  4.57223564E-01 -4.57223564E-01 -3.77808891E-16  2.05534387E-15
  3.31923832E-17  1.00000000E+00  2.85156646E-15 -2.35483630E-15 -1.29324994E-15
  9.78486499E-02 -5.55430169E-01 -7.33066619E-15 -6.07401050E-17  7.33750274E-01
  6.66273155E-01  6.66273155E-01  7.58074159E-16 -4.03843625E-15  8.83087919E-01
 -5.83474938E-17  6.12010442E-15  6.79748691E-01 -6.79748691E-01
Orbital Coefficients CCMAN2 Beta           R   N=          49
 -2.43857731E-01  9.18321712E-01 -3.11914736E-16  1.48236074E-17 -6.14904072E-02
  1.30505133E-01  1.30505133E-01  8.46607361E-02 -4.28690812E-01 -6.70801397E-15
  4.43426484E-15 -7.33859845E-01  3.58070791E-01  3.58070791E-01 -1.08407991E-15
  4.63152028E-15 -6.11175066E-01  5.62455710E-16  7.64940396E-15  4.57223564E-01
 -4.57223564E-01 -3.77808891E-16  2.05534387E-15  3.31923832E-17  1.00000000E+00
  2.85156646E-15 -2.35483630E-15 -1.29324994E-15  9.78486499E-02 -5.55430169E-01
 -7.33066619E-15 -6.07401050E-17  7.33750274E-01  6.66273155E-01  6.66273155E-01
  7.58074159E-16 -4.03843625E-15  8.83087919E-01 -5.83474938E-17  6.12010442E-15
  6.79748691E-01 -6.79748691E-01 -9.94598733E-01 -2.29281854E-02  2.53157987E-16
 -7.87903123E-17  2.52006878E-03  3.84932340E-03  3.84932340E-03
EOMEE transition A1 Excitation Energies    R   N=           1
  4.38874092E-01
Number of Active Occ                       I               10
Number of Active Vir                       I                4
Alpha Amplitudes                           R   N=           4
 -6.21592286E-01  2.43378707E-01 -6.21592286E-01  2.43378707E-01
Alpha J Indexes                            I   N=           2
           0           4
Alpha I Indexes                            I   N=           4
           8          13          30          35
EOMEE transition A2 Excitation Energies    R   N=           1
  3.14930382E-01
Number of Active Occ                       I               10
Number of Active Vir                       I                4
Alpha Amplitudes                           R   N=           2
  6.67630183E-01  6.67630183E-01
Alpha J Indexes                            I   N=           2
           0           2
Alpha I Indexes                            I   N=           2
          17          39
EOMEE transition B1 Excitation Energies    R   N=           1
  4.74993688E-01
Number of Active Occ                       I               10
Number of Active Vir                       I                4
Alpha Amplitudes                           R   N=           4
  5.41011308E-01 -3.85620474E-01  5.41011308E-01 -3.85620474E-01
Alpha J Indexes                            I   N=           2
           0           4
Alpha I Indexes                            I   N=           4
           9          12          31          34
EOMEE transition B2 Excitation Energies    R   N=           1
  2.49586937E-01
Number of Active Occ                       I               10
Number of Active Vir                       I                4
Alpha Amplitudes                           R   N=           2
  6.67182564E-01  6.67182564E-01
Alpha J Indexes                            I   N=           2
           0           2
Alpha I Indexes                            I   N=           2
          16          38
EOMEE transition A1 Excitation Energies    R   N=           1
  2.88992805E-01
Number of Active Occ                       I               10
Number of Active Vir                       I                4
Alpha Amplitudes                           R   N=           4
  6.51430007E-01  2.56522775E-01 -6.51430007E-01 -2.56522775E-01
Alpha J Indexes                            I   N=           2
           0           4
Alpha I Indexes                            I   N=           4
           8          13          30          35
EOMEE transition A2 Excitation Energies    R   N=           1
  2.84307333E-01
Number of Active Occ                       I               10
Number of Active Vir                       I                4
Alpha Amplitudes                           R   N=           2
  6.75776412E-01 -6.75776412E-01
Alpha J Indexes                            I   N=           2
           0           2
Alpha I Indexes                            I   N=           2
          17          39
EOMEE transition B1 Excitation Energies    R   N=           1
  3.42961407E-01
Number of Active Occ                       I               10
Number of Active Vir                       I                4
Alpha Amplitudes                           R   N=           4
 -5.30454474E-01 -4.58468276E-01  5.30454474E-01  4.58468276E-01
Alpha J Indexes                            I   N=           2
           0           4
Alpha I Indexes                            I   N=           4
           9          12          31          34
EOMEE transition B2 Excitation Energies    R   N=           1
  2.09937893E-01
Number of Active Occ                       I               10
Number of Active Vir                       I                4
Alpha Amplitudes                           R   N=           2
  6.79453064E-01 -6.79453064E-01
Alpha J Indexes                            I   N=           2
           0           2
Alpha I Indexes                            I   N=           2
          16          38
Number of independent functions            I                7
Alpha MO coefficients                      R   N=          49
 -9.94598733E-01 -2.29281854E-02  2.53157987E-16 -7.87903123E-17  2.52006878E-03
  3.84932340E-03  3.84932340E-03 -2.43857731E-01  9.18321712E-01 -3.11914736E-16
  1.48236074E-17 -6.14904072E-02  1.30505133E-01  1.30505133E-01 -1.08407991E-15
  4.63152028E-15 -6.11175066E-01  5.62455710E-16  7.64940396E-15  4.57223564E-01
 -4.57223564E-01  8.46607361E-02 -4.28690812E-01 -6.70801397E-15  4.43426484E-15
 -7.33859845E-01  3.58070791E-01  3.58070791E-01 -3.77808891E-16  2.05534387E-15
  3.31923832E-17  1.00000000E+00  2.85156646E-15 -2.35483630E-15 -1.29324994E-15
  9.78486499E-02 -5.55430169E-01 -7.33066619E-15 -6.07401050E-17  7.33750274E-01
  6.66273155E-01  6.66273155E-01  7.58074159E-16 -4.03843625E-15  8.83087919E-01
 -5.83474938E-17  6.12010442E-15  6.79748691E-01 -6.79748691E-01
Alpha Orbital Energies                     R   N=           7
 -2.02774682E+01 -1.18208783E+00 -5.06736799E-01 -4.21422674E-01 -3.88862240E-01
  4.02258569E-01  5.00868061E-01
Total SCF Density                          R   N=          28
  2.11379478E+00 -4.85832056E-01  2.11209957E+00 -2.93251368E-16  9.66006374E-17
  7.78359916E-01  1.61885571E-16  2.66053733E-16 -6.03408760E-16  1.99832245E+00
 -9.10476624E-02  4.72602943E-01  4.96940787E-16 -4.43307566E-16  1.03782045E+00
  6.53775784E-04 -1.22766261E-01 -4.99535460E-01 -1.00786839E-15 -4.97987204E-01
  7.66782275E-01  6.53775784E-04 -1.22766261E-01  4.99535460E-01  1.27287115E-16
 -4.97987204E-01 -9.93348488E-02  7.66782275E-01
Pure Switching                             I                1
Dipole_Data                                R   N=           3
  1.19200877E-14 -1.99003270E-17 -1.14867197E+00
Quadrupole_Data                            R   N=           6
 -4.59468990E+00  1.60692555E-16 -6.28700269E+00 -6.52476985E-15  1.73030570E-16
 -5.47990590E+00
Octapole_Data                              R   N=          10
  1.67995559E-14  1.18042793E-16  2.19815983E-15  2.42669237E-16 -4.58232646E-01
  8.75131460E-17  1.75397051E-01  5.45291099E-15  1.55297081E-16  4.17141719E-01
Hexadecapole_Data                          R   N=          15
 -9.85330766E+00 -2.24991602E-16 -2.44599474E+00 -2.26870132E-16 -3.46671462E+00
 -9.78044301E-15 -1.40015130E-17 -1.32311777E-15 -1.48431819E-16 -2.43614144E+00
 -5.28626781E-17 -1.72297578E+00 -5.84615490E-15 -1.07089150E-16 -6.55445648E+00
