Jobname.Temp
FOPT      R                             STO-3G              
Number of atoms                            I                3
Charge                                     I                0
Multiplicity                               I                1
Number of electrons                        I               10
Number of alpha electrons                  I                5
Number of beta electrons                   I                5
Atomic numbers                             I   N=           3
           1           8           1
Current cartesian coordinates              R   N=           9
  1.47983867E+00 -9.16332629E-01 -5.51387794E-16 -3.62951360E-05  2.29111256E-01
  6.43047950E-17 -1.47954831E+00 -9.16557422E-01  1.29175768E-17
Nuclear charges                            R   N=           3
  1.00000000E+00  8.00000000E+00  1.00000000E+00
Number of basis functions                  I                7
Number of contracted shells                I                4
Number of primitive shells                 I               12
Highest angular momentum                   I                1
Largest degree of contraction              I                3
Shell types                                I   N=           4
           0           0          -1           0
Number of primitives per shell             I   N=           4
           3           3           3           3
Shell to atom map                          I   N=           4
           1           2           2           3
Primitive exponents                        R   N=          12
  3.42525091E+00  6.23913730E-01  1.68855400E-01  1.30709320E+02  2.38088610E+01
  6.44360830E+00  5.03315130E+00  1.16959610E+00  3.80389000E-01  3.42525091E+00
  6.23913730E-01  1.68855400E-01
Contraction coefficients                   R   N=          12
  1.54328971E-01  5.35328142E-01  4.44634542E-01  1.54328969E-01  5.35328136E-01
  4.44634536E-01 -9.99672287E-02  3.99512825E-01  7.00115461E-01  1.54328971E-01
  5.35328142E-01  4.44634542E-01
P(S=P) Contraction coefficients            R   N=          12
  0.00000000E+00  0.00000000E+00  0.00000000E+00  0.00000000E+00  0.00000000E+00
  0.00000000E+00  1.55916268E-01  6.07683714E-01  3.91957386E-01  0.00000000E+00
  0.00000000E+00  0.00000000E+00
Coordinates of each shell                  R   N=          12
  1.47983867E+00 -9.16332629E-01 -5.51387794E-16 -3.62951360E-05  2.29111256E-01
  6.43047950E-17 -3.62951360E-05  2.29111256E-01  6.43047950E-17 -1.47954831E+00
 -9.16557422E-01  1.29175768E-17
Overlap Matrix                             R   N=          28
  1.00000000E+00  4.98927228E-02  1.00000000E+00  4.53343482E-01  2.36703937E-01
  1.00000000E+00  3.01862146E-01  0.00000000E+00  0.00000000E+00  1.00000000E+00
 -2.33645515E-01 -2.31171306E-18  4.68117047E-17  0.00000000E+00  1.00000000E+00
 -1.25587830E-16 -7.23953796E-33  0.00000000E+00  0.00000000E+00  0.00000000E+00
  1.00000000E+00  2.33413667E-01  4.99021190E-02  4.53394133E-01 -3.01834750E-01
 -2.33727483E-01 -1.04834892E-17  1.00000000E+00
Core Hamiltonian Matrix                    R   N=          28
 -4.94189473E+00 -1.61556327E+00 -3.26840264E+01 -3.53279522E+00 -7.60407278E+00
 -9.30109046E+00 -1.94890980E+00 -6.65447357E-08 -4.21076749E-06 -7.57477052E+00
  1.57459799E+00  1.77584730E-02  2.11268997E-01 -1.64856416E-05 -7.51678501E+00
  8.30079469E-16  5.17002910E-18  6.15074529E-17  2.75965514E-17 -2.52516146E-17
 -7.43003752E+00 -1.46306409E+00 -1.61586705E+00 -3.53325857E+00  1.94876401E+00
  1.57516460E+00  8.69373269E-17 -4.94218272E+00
Orbital Coefficients CCMAN2 Alpha          R   N=          49
 -5.61355773E-03  9.94207180E-01  2.58919722E-02 -9.32761750E-08 -4.03421528E-03
  6.33596549E-17 -5.61455046E-03  1.56147794E-01 -2.34131997E-01  8.45730447E-01
 -7.69608616E-06 -1.18380029E-01  1.38415349E-15  1.56177538E-01  4.47108006E-01
 -1.33030783E-05  7.20109186E-05  6.05500840E-01  1.06993206E-04  2.09233042E-17
 -4.47115761E-01  2.90800090E-01  1.01333686E-01 -5.25480674E-01  1.11766565E-04
 -7.69596810E-01 -5.56662691E-14  2.90742014E-01  1.60634894E-14  5.84703268E-15
 -3.02046492E-14  5.53679916E-16 -4.19912834E-14  1.00000000E+00  1.64069398E-14
  7.74253908E-01  1.27666814E-01 -8.28872902E-01 -3.67790728E-04  7.40516190E-01
 -5.35518421E-16  7.73809551E-01  8.09500344E-01 -4.53193166E-05  3.23833566E-04
 -9.72216381E-01 -3.47221595E-04  4.04941737E-16 -8.10037694E-01
Orbital Coefficients CCMAN2 Beta           R   N=          49
  1.56147794E-01 -2.34131997E-01  8.45730447E-01 -7.69608616E-06 -1.18380029E-01
  1.38415349E-15  1.56177538E-01  4.47108006E-01 -1.33030783E-05  7.20109186E-05
  6.05500840E-01  1.06993206E-04  2.09233042E-17 -4.47115761E-01  2.90800090E-01
  1.01333686E-01 -5.25480674E-01  1.11766565E-04 -7.69596810E-01 -5.56662691E-14
  2.90742014E-01  1.60634894E-14  5.84703268E-15 -3.02046492E-14  5.53679916E-16
 -4.19912834E-14  1.00000000E+00  1.64069398E-14  7.74253908E-01  1.27666814E-01
 -8.28872902E-01 -3.67790728E-04  7.40516190E-01 -5.35518421E-16  7.73809551E-01
  8.09500344E-01 -4.53193166E-05  3.23833566E-04 -9.72216381E-01 -3.47221595E-04
  4.04941737E-16 -8.10037694E-01 -5.61355773E-03  9.94207180E-01  2.58919722E-02
 -9.32761750E-08 -4.03421528E-03  6.33596549E-17 -5.61455046E-03
Dipole_Data                                R   N=           3
  9.88542438E-05 -1.55901498E+00 -1.23284909E-14
Quadrupole_Data                            R   N=           6
 -4.49796317E+00  6.82484517E-05 -5.45670173E+00 -5.52388636E-16 -5.49314428E-15
 -6.13717593E+00
Octapole_Data                              R   N=          10
  9.34503595E-05 -4.54356490E-01 -9.45952480E-05 -2.54621619E-02 -1.26613641E-15
 -4.12690654E-18 -2.43458764E-15 -3.31050742E-05  4.01787703E-02 -3.84841646E-15
Hexadecapole_Data                          R   N=          15
 -7.13808332E+00 -7.00670509E-05 -1.84999892E+00  8.46969547E-05 -5.17449090E+00
  2.82766339E-16 -6.71301121E-16  6.60514406E-17 -2.40593988E-15 -1.88530862E+00
  5.31015459E-06 -1.44562434E+00  4.16831735E-16 -2.26485165E-15 -3.28912178E+00
Current cartesian coordinates              R   N=           9
  1.47021257E+00 -9.30441948E-01  0.00000000E+00  1.27103632E-05  2.57369841E-01
  0.00000000E+00 -1.46997122E+00 -9.30706687E-01  0.00000000E+00
Overlap Matrix                             R   N=          28
  1.00000000E+00  4.87303384E-02  1.00000000E+00  4.47029387E-01  2.36703937E-01
  1.00000000E+00  2.94134216E-01 -1.01127514E-21  1.83446942E-21  1.00000000E+00
 -2.37638499E-01 -1.70713455E-17  4.93489089E-17  9.54334239E-38  1.00000000E+00
  0.00000000E+00  0.00000000E+00  0.00000000E+00  0.00000000E+00  0.00000000E+00
  1.00000000E+00  2.36893863E-01  4.87304342E-02  4.47029912E-01 -2.94091492E-01
 -2.37691849E-01  0.00000000E+00  1.00000000E+00
Core Hamiltonian Matrix                    R   N=          28
 -4.90826922E+00 -1.57751576E+00 -3.26734143E+01 -3.47433478E+00 -7.60156087E+00
 -9.29129538E+00 -1.89320580E+00 -1.59697407E-06 -1.90902757E-05 -7.55883750E+00
  1.59699658E+00  1.78724454E-02  2.13279436E-01 -4.39760369E-06 -7.51134995E+00
  0.00000000E+00  0.00000000E+00  0.00000000E+00  0.00000000E+00  0.00000000E+00
 -7.42199174E+00 -1.46935572E+00 -1.57751886E+00 -3.47433955E+00  1.89291907E+00
  1.59734036E+00  0.00000000E+00 -4.90827218E+00
Orbital Coefficients CCMAN2 Alpha          R   N=          49
 -5.49244117E-03  9.94235473E-01  2.56725667E-02  3.57049455E-07 -4.00908893E-03
 -4.93313363E-16 -5.49245131E-03  1.54910783E-01 -2.34400634E-01  8.48990146E-01
  1.03948423E-05 -1.17279311E-01 -3.35603278E-16  1.54911090E-01  4.48784885E-01
 -1.45144458E-07  7.83985551E-07  6.09109820E-01  5.55414123E-05  3.14264393E-15
 -4.48785020E-01  2.96996789E-01  1.02103683E-01 -5.28189529E-01  6.90572230E-05
 -7.60181917E-01  5.37708278E-14  2.96996117E-01  1.80765073E-14  5.53851349E-15
 -2.92724142E-14  1.38921283E-15 -3.99611882E-14 -1.00000000E+00  1.51018939E-14
 -7.64708885E-01 -1.25206218E-01  8.07667814E-01  7.12449947E-05 -7.52219843E-01
 -1.21833248E-15 -7.64703808E-01  8.03678592E-01 -5.02005284E-07  3.53153230E-06
 -9.60293294E-01 -8.95855395E-05  6.88925392E-16 -8.03684565E-01
Orbital Coefficients CCMAN2 Beta           R   N=          49
  1.54910783E-01 -2.34400634E-01  8.48990146E-01  1.03948423E-05 -1.17279311E-01
 -3.35603278E-16  1.54911090E-01  4.48784885E-01 -1.45144458E-07  7.83985551E-07
  6.09109820E-01  5.55414123E-05  3.14264393E-15 -4.48785020E-01  2.96996789E-01
  1.02103683E-01 -5.28189529E-01  6.90572230E-05 -7.60181917E-01  5.37708278E-14
  2.96996117E-01  1.80765073E-14  5.53851349E-15 -2.92724142E-14  1.38921283E-15
 -3.99611882E-14 -1.00000000E+00  1.51018939E-14 -7.64708885E-01 -1.25206218E-01
  8.07667814E-01  7.12449947E-05 -7.52219843E-01 -1.21833248E-15 -7.64703808E-01
  8.03678592E-01 -5.02005284E-07  3.53153230E-06 -9.60293294E-01 -8.95855395E-05
  6.88925392E-16 -8.03684565E-01 -5.49244117E-03  9.94235473E-01  2.56725667E-02
  3.57049455E-07 -4.00908893E-03 -4.93313363E-16 -5.49245131E-03
Dipole_Data                                R   N=           3
  1.39478830E-04 -1.55153488E+00  7.75249447E-15
Quadrupole_Data                            R   N=           6
 -4.56869478E+00  5.06009460E-05 -5.46028916E+00 -8.04424627E-16  6.37150522E-15
 -6.14719845E+00
Octapole_Data                              R   N=          10
 -1.31230421E-04 -4.83715948E-01 -1.75158769E-04 -1.83399778E-01  5.53303128E-16
 -1.34996173E-16  2.21906622E-15 -1.16360281E-04 -1.49047200E-02  2.29998695E-15
Hexadecapole_Data                          R   N=          15
 -7.19552268E+00 -1.67531231E-04 -1.87871037E+00 -2.92004371E-05 -5.33698632E+00
 -2.40559192E-16  7.63512067E-16 -9.81581074E-17  2.48097235E-15 -1.88764203E+00
 -3.67551147E-05 -1.47790680E+00 -2.52625125E-16  2.17933082E-15 -3.30011997E+00
Current cartesian coordinates              R   N=           9
  1.44103114E+00 -9.42295578E-01  0.00000000E+00  1.11088912E-05  2.81072293E-01
  0.00000000E+00 -1.44078818E+00 -9.42555509E-01  0.00000000E+00
Overlap Matrix                             R   N=          28
  1.00000000E+00  4.87176040E-02  1.00000000E+00  4.46959679E-01  2.36703937E-01
  1.00000000E+00  2.88234357E-01  4.59710824E-22  3.58545151E-21  1.00000000E+00
 -2.44699342E-01 -3.85527073E-18  0.00000000E+00  0.00000000E+00  1.00000000E+00
  0.00000000E+00  0.00000000E+00  0.00000000E+00  0.00000000E+00  0.00000000E+00
  1.00000000E+00  2.47729264E-01  4.87176054E-02  4.46959686E-01 -2.88190211E-01
 -2.44751339E-01  0.00000000E+00  1.00000000E+00
Core Hamiltonian Matrix                    R   N=          28
 -4.91458284E+00 -1.57714451E+00 -3.26732979E+01 -3.47625809E+00 -7.60153332E+00
 -9.29118772E+00 -1.85532630E+00 -1.65957979E-06 -1.98055657E-05 -7.55330750E+00
  1.64646820E+00  1.84012713E-02  2.19597436E-01 -3.30846253E-06 -7.51664519E+00
  0.00000000E+00  0.00000000E+00  0.00000000E+00  0.00000000E+00  0.00000000E+00
 -7.42190324E+00 -1.52791889E+00 -1.57714456E+00 -3.47625815E+00  1.85502927E+00
  1.64680290E+00  0.00000000E+00 -4.91458288E+00
Orbital Coefficients CCMAN2 Alpha          R   N=          49
  5.46493438E-03 -9.94242675E-01 -2.56317834E-02 -3.67833240E-07  4.07868569E-03
  6.14952431E-16  5.46493452E-03  1.54558575E-01 -2.34199386E-01  8.48398030E-01
  1.07952287E-05 -1.19709264E-01  3.05475318E-16  1.54558579E-01  4.50036252E-01
 -2.06514792E-09  1.11554781E-08  6.13843918E-01  5.53770851E-05 -2.77577833E-15
 -4.50036255E-01  2.99847761E-01  1.03697700E-01 -5.35585714E-01  6.77943805E-05
 -7.51526531E-01 -2.40022425E-15  2.99847751E-01  2.19594284E-15  5.38234800E-16
 -1.61169818E-15  1.15792250E-15 -1.43176924E-15  1.00000000E+00 -4.71253481E-16
 -7.61035067E-01 -1.23969945E-01  8.01169202E-01  6.91511947E-05 -7.66079405E-01
 -4.54994515E-16 -7.61034989E-01  8.06541131E-01 -7.49491775E-09  5.24255967E-08
 -9.52172067E-01 -8.59307560E-05 -1.66826332E-16 -8.06541221E-01
Orbital Coefficients CCMAN2 Beta           R   N=          49
  1.54558575E-01 -2.34199386E-01  8.48398030E-01  1.07952287E-05 -1.19709264E-01
  3.05475318E-16  1.54558579E-01  4.50036252E-01 -2.06514792E-09  1.11554781E-08
  6.13843918E-01  5.53770851E-05 -2.77577833E-15 -4.50036255E-01  2.99847761E-01
  1.03697700E-01 -5.35585714E-01  6.77943805E-05 -7.51526531E-01 -2.40022425E-15
  2.99847751E-01  2.19594284E-15  5.38234800E-16 -1.61169818E-15  1.15792250E-15
 -1.43176924E-15  1.00000000E+00 -4.71253481E-16 -7.61035067E-01 -1.23969945E-01
  8.01169202E-01  6.91511947E-05 -7.66079405E-01 -4.54994515E-16 -7.61034989E-01
  8.06541131E-01 -7.49491775E-09  5.24255967E-08 -9.52172067E-01 -8.59307560E-05
 -1.66826332E-16 -8.06541221E-01  5.46493438E-03 -9.94242675E-01 -2.56317834E-02
 -3.67833240E-07  4.07868569E-03  6.14952431E-16  5.46493452E-03
Dipole_Data                                R   N=           3
  1.40982902E-04 -1.56309075E+00 -8.39470146E-16
Quadrupole_Data                            R   N=           6
 -4.64805333E+00  4.22609991E-05 -5.45099482E+00  5.68401669E-16 -4.06223515E-16
 -6.14885840E+00
Octapole_Data                              R   N=          10
 -1.33813763E-04 -4.99837389E-01 -1.65239960E-04 -3.33849219E-01 -2.44268222E-16
  1.28936507E-16 -3.24924305E-16 -1.12742875E-04 -6.54994066E-02 -5.00500693E-16
Hexadecapole_Data                          R   N=          15
 -7.12548259E+00 -1.62139760E-04 -1.88285047E+00 -2.32582670E-05 -5.46191550E+00
  1.42757751E-16 -3.14039886E-17  6.57515939E-17 -1.62343752E-16 -1.86195455E+00
 -3.36888644E-05 -1.50239622E+00  1.62422629E-16 -1.33817700E-16 -3.30148159E+00
Current cartesian coordinates              R   N=           9
  1.42185562E+00 -9.49539147E-01  0.00000000E+00  9.80975710E-06  2.95555978E-01
  0.00000000E+00 -1.42161136E+00 -9.49795625E-01  0.00000000E+00
Overlap Matrix                             R   N=          28
  1.00000000E+00  4.87380985E-02  1.00000000E+00  4.47071861E-01  2.36703937E-01
  1.00000000E+00  2.84497594E-01  1.55299856E-22  3.01201836E-21  1.00000000E+00
 -2.49131492E-01  0.00000000E+00  0.00000000E+00  0.00000000E+00  1.00000000E+00
  0.00000000E+00  0.00000000E+00  0.00000000E+00  0.00000000E+00  0.00000000E+00
  1.00000000E+00  2.55063937E-01  4.87380985E-02  4.47071862E-01 -2.84452647E-01
 -2.49182811E-01  0.00000000E+00  1.00000000E+00
Core Hamiltonian Matrix                    R   N=          28
 -4.91976245E+00 -1.57784521E+00 -3.26734846E+01 -3.47903253E+00 -7.60157749E+00
 -9.29136034E+00 -1.83146848E+00 -1.69013972E-06 -2.01687579E-05 -7.55007266E+00
  1.67780607E+00  1.87379332E-02  2.23603182E-01 -2.68943763E-06 -7.52025644E+00
  0.00000000E+00  0.00000000E+00  0.00000000E+00  0.00000000E+00  0.00000000E+00
 -7.42204514E+00 -1.56786669E+00 -1.57784521E+00 -3.47903253E+00  1.83116577E+00
  1.67813644E+00  0.00000000E+00 -4.91976245E+00
Orbital Coefficients CCMAN2 Alpha          R   N=          49
 -5.44781297E-03  9.94246777E-01  2.56092086E-02  3.71831137E-07 -4.12235469E-03
  8.15608062E-17 -5.44781297E-03 -1.54409248E-01  2.34048601E-01 -8.47858390E-01
 -1.09413132E-05  1.21302499E-01  5.55231421E-16 -1.54409248E-01 -4.50797790E-01
  5.68573435E-11 -3.06974474E-10 -6.17024620E-01 -5.56553236E-05 -3.15727917E-15
  4.50797790E-01 -3.01528176E-01 -1.04719893E-01  5.40338953E-01 -6.72959733E-05
  7.46080130E-01 -6.76643695E-15 -3.01528175E-01  3.82200503E-15  8.56498907E-16
 -4.70487144E-15  1.46781016E-15 -4.95972832E-15 -1.00000000E+00  7.42888558E-16
  7.58665887E-01  1.23213396E-01 -7.97320876E-01 -6.98730473E-05  7.74637091E-01
  1.00233844E-16  7.58665885E-01  8.08882512E-01 -2.12044981E-10  1.47880425E-09
 -9.47027038E-01 -8.54223128E-05 -1.85543979E-17 -8.08882515E-01
Orbital Coefficients CCMAN2 Beta           R   N=          49
 -1.54409248E-01  2.34048601E-01 -8.47858390E-01 -1.09413132E-05  1.21302499E-01
  5.55231421E-16 -1.54409248E-01 -4.50797790E-01  5.68573435E-11 -3.06974474E-10
 -6.17024620E-01 -5.56553236E-05 -3.15727917E-15  4.50797790E-01 -3.01528176E-01
 -1.04719893E-01  5.40338953E-01 -6.72959733E-05  7.46080130E-01 -6.76643695E-15
 -3.01528175E-01  3.82200503E-15  8.56498907E-16 -4.70487144E-15  1.46781016E-15
 -4.95972832E-15 -1.00000000E+00  7.42888558E-16  7.58665887E-01  1.23213396E-01
 -7.97320876E-01 -6.98730473E-05  7.74637091E-01  1.00233844E-16  7.58665885E-01
  8.08882512E-01 -2.12044981E-10  1.47880425E-09 -9.47027038E-01 -8.54223128E-05
 -1.85543979E-17 -8.08882515E-01 -5.44781297E-03  9.94246777E-01  2.56092086E-02
  3.71831137E-07 -4.12235469E-03  8.15608062E-17 -5.44781297E-03
Dipole_Data                                R   N=           3
  1.41670616E-04 -1.57064512E+00  3.83057591E-15
Quadrupole_Data                            R   N=           6
 -4.69734173E+00  3.70729212E-05 -5.44439944E+00 -7.81326653E-16  9.21402214E-16
 -6.14957937E+00
Octapole_Data                              R   N=          10
 -1.34251925E-04 -5.08881157E-01 -1.58430600E-04 -4.26156679E-01  6.47876280E-16
 -1.35673865E-16  8.15465098E-16 -1.09967373E-04 -9.65622194E-02  1.59673696E-15
Hexadecapole_Data                          R   N=          15
 -7.07443811E+00 -1.57352441E-04 -1.88552129E+00 -1.86192074E-05 -5.54131269E+00
 -2.47235263E-16  8.16265594E-17 -1.03270293E-16  3.54441849E-16 -1.84490767E+00
 -3.13544548E-05 -1.51795164E+00 -2.52955209E-16  3.03333938E-16 -3.30201255E+00
Number of independent functions            I                7
Alpha MO coefficients                      R   N=          49
 -5.44781297E-03  9.94246777E-01  2.56092086E-02  3.71831137E-07 -4.12235469E-03
  8.15608062E-17 -5.44781297E-03 -1.54409248E-01  2.34048601E-01 -8.47858390E-01
 -1.09413132E-05  1.21302499E-01  5.55231421E-16 -1.54409248E-01 -4.50797790E-01
  5.68573435E-11 -3.06974474E-10 -6.17024620E-01 -5.56553236E-05 -3.15727917E-15
  4.50797790E-01 -3.01528176E-01 -1.04719893E-01  5.40338953E-01 -6.72959733E-05
  7.46080130E-01 -6.76643695E-15 -3.01528175E-01  3.82200503E-15  8.56498907E-16
 -4.70487144E-15  1.46781016E-15 -4.95972832E-15 -1.00000000E+00  7.42888558E-16
  7.58665887E-01  1.23213396E-01 -7.97320876E-01 -6.98730473E-05  7.74637091E-01
  1.00233844E-16  7.58665885E-01  8.08882512E-01 -2.12044981E-10  1.47880425E-09
 -9.47027038E-01 -8.54223128E-05 -1.85543979E-17 -8.08882515E-01
Alpha Orbital Energies                     R   N=           7
 -2.02557218E+01 -1.25501010E+00 -5.84240724E-01 -4.64030967E-01 -3.93679066E-01
  5.75207288E-01  6.74521616E-01
Total SCF Density                          R   N=          28
  6.79210578E-01 -1.32818745E-02  2.10979615E+00 -1.00496253E-01 -4.66715606E-01
  2.06726280E+00  5.22413972E-01  9.40696559E-06 -5.23212172E-05  7.73984835E-01
 -4.70398421E-01 -1.04291141E-01  5.80064197E-01 -3.11152601E-05  1.11894698E+00
 -5.82863498E-16  6.01915962E-16 -7.61597212E-16  1.03916729E-15 -8.07809234E-16
  1.99844028E+00 -1.70283094E-01 -1.32818745E-02 -1.00496253E-01 -5.22329104E-01
 -4.70492656E-01 -4.45958204E-16  6.79210578E-01
Pure Switching                             I                1
Dipole_Data                                R   N=           3
  1.41670616E-04 -1.57064512E+00  3.83057591E-15
Quadrupole_Data                            R   N=           6
 -4.69734173E+00  3.70729212E-05 -5.44439944E+00 -7.81326653E-16  9.21402214E-16
 -6.14957937E+00
Octapole_Data                              R   N=          10
 -1.34251925E-04 -5.08881157E-01 -1.58430600E-04 -4.26156679E-01  6.47876280E-16
 -1.35673865E-16  8.15465098E-16 -1.09967373E-04 -9.65622194E-02  1.59673696E-15
Hexadecapole_Data                          R   N=          15
 -7.07443811E+00 -1.57352441E-04 -1.88552129E+00 -1.86192074E-05 -5.54131269E+00
 -2.47235263E-16  8.16265594E-17 -1.03270293E-16  3.54441849E-16 -1.84490767E+00
 -3.13544548E-05 -1.51795164E+00 -2.52955209E-16  3.03333938E-16 -3.30201255E+00
