Jobname.Temp
SP        R                             STO-3G              
Number of atoms                            I                3
Charge                                     I                0
Multiplicity                               I                1
Number of electrons                        I               10
Number of alpha electrons                  I                5
Number of beta electrons                   I                5
Atomic numbers                             I   N=           3
           8           1           1
Current cartesian coordinates              R   N=           9
 -2.31445397E-17  2.24053282E-17  2.31384598E-01 -1.49418674E+00 -1.60579773E-16
 -9.25538391E-01  1.49418674E+00 -1.86628525E-17 -9.25538391E-01
Nuclear charges                            R   N=           3
  8.00000000E+00  1.00000000E+00  1.00000000E+00
Number of basis functions                  I                7
Number of contracted shells                I                4
Number of primitive shells                 I               12
Highest angular momentum                   I                1
Largest degree of contraction              I                3
Shell types                                I   N=           4
           0          -1           0           0
Number of primitives per shell             I   N=           4
           3           3           3           3
Shell to atom map                          I   N=           4
           1           1           2           3
Primitive exponents                        R   N=          12
  1.30709320E+02  2.38088610E+01  6.44360830E+00  5.03315130E+00  1.16959610E+00
  3.80389000E-01  3.42525091E+00  6.23913730E-01  1.68855400E-01  3.42525091E+00
  6.23913730E-01  1.68855400E-01
Contraction coefficients                   R   N=          12
  1.54328969E-01  5.35328136E-01  4.44634536E-01 -9.99672287E-02  3.99512825E-01
  7.00115461E-01  1.54328971E-01  5.35328142E-01  4.44634542E-01  1.54328971E-01
  5.35328142E-01  4.44634542E-01
P(S=P) Contraction coefficients            R   N=          12
  0.00000000E+00  0.00000000E+00  0.00000000E+00  1.55916268E-01  6.07683714E-01
  3.91957386E-01  0.00000000E+00  0.00000000E+00  0.00000000E+00  0.00000000E+00
  0.00000000E+00  0.00000000E+00
Coordinates of each shell                  R   N=          12
 -2.31445397E-17  2.24053282E-17  2.31384598E-01 -2.31445397E-17  2.24053282E-17
  2.31384598E-01 -1.49418674E+00 -1.60579773E-16 -9.25538391E-01  1.49418674E+00
 -1.86628525E-17 -9.25538391E-01
Overlap Matrix                             R   N=          28
  1.00000000E+00  2.36703937E-01  1.00000000E+00  2.27598078E-34 -2.83968810E-33
  1.00000000E+00  1.00394919E-33  5.69433557E-33 -1.46252936E-65  1.00000000E+00
 -5.22188463E-18  7.33189686E-17 -1.73592387E-49  3.47184774E-49  1.00000000E+00
  4.87518062E-02  4.47146878E-01 -2.99041532E-01 -3.66220255E-17 -2.31542693E-01
  1.00000000E+00  4.87518062E-02  4.47146878E-01  2.99041532E-01 -8.21924818E-18
 -2.31542693E-01  2.28238924E-01  1.00000000E+00
Core Hamiltonian Matrix                    R   N=          28
 -3.26736094E+01 -7.60160704E+00 -9.29147580E+00  0.00000000E+00  0.00000000E+00
 -7.56362101E+00  0.00000000E+00  0.00000000E+00  0.00000000E+00 -7.42214005E+00
  1.74153640E-02  2.07813311E-01  0.00000000E+00  0.00000000E+00 -7.50695983E+00
 -1.57818038E+00 -3.47334591E+00  1.92474988E+00 -2.44395601E-17  1.55452724E+00
 -4.90357867E+00 -1.57818038E+00 -3.47334591E+00 -1.92474988E+00 -5.48508193E-18
  1.55452724E+00 -1.42265627E+00 -4.90357867E+00
Orbital Coefficients CCMAN2 Alpha          R   N=          49
  9.94229268E-01  2.57070501E-02 -3.11380125E-16 -1.07274353E-16 -3.94670812E-03
 -5.51351160E-03 -5.51351160E-03 -2.34550429E-01  8.49357350E-01  5.14849658E-16
  6.21099562E-16 -1.15197296E-01  1.55292802E-01  1.55292802E-01  1.00741495E-01
 -5.21851877E-01 -2.93662945E-15 -6.79753423E-15 -7.67556056E-01  2.94463250E-01
  2.94463250E-01  4.17963442E-16 -4.94242633E-16 -6.05351770E-01  1.06818587E-15
  2.06651833E-15  4.47696572E-01 -4.47696572E-01  7.54985751E-16 -3.34582983E-15
  4.59992449E-16  1.00000000E+00 -4.58617206E-15  1.09343532E-15  2.32366621E-15
 -1.26260916E-01  8.13176765E-01  7.61573919E-15  3.13049820E-16 -7.40065744E-01
 -7.67594192E-01 -7.67594192E-01  1.46237189E-15 -8.77076189E-15  9.67057481E-01
 -2.25752856E-16  3.99680289E-15  8.01789836E-01 -8.01789836E-01
Orbital Coefficients CCMAN2 Beta           R   N=          49
 -2.34550429E-01  8.49357350E-01  5.14849658E-16  6.21099562E-16 -1.15197296E-01
  1.55292802E-01  1.55292802E-01  1.00741495E-01 -5.21851877E-01 -2.93662945E-15
 -6.79753423E-15 -7.67556056E-01  2.94463250E-01  2.94463250E-01  4.17963442E-16
 -4.94242633E-16 -6.05351770E-01  1.06818587E-15  2.06651833E-15  4.47696572E-01
 -4.47696572E-01  7.54985751E-16 -3.34582983E-15  4.59992449E-16  1.00000000E+00
 -4.58617206E-15  1.09343532E-15  2.32366621E-15 -1.26260916E-01  8.13176765E-01
  7.61573919E-15  3.13049820E-16 -7.40065744E-01 -7.67594192E-01 -7.67594192E-01
  1.46237189E-15 -8.77076189E-15  9.67057481E-01 -2.25752856E-16  3.99680289E-15
  8.01789836E-01 -8.01789836E-01  9.94229268E-01  2.57070501E-02 -3.11380125E-16
 -1.07274353E-16 -3.94670812E-03 -5.51351160E-03 -5.51351160E-03
EOMEE transition A1 Excitation Energies    R   N=           1
  5.64372271E-01
Number of Active Occ                       I               10
Number of Active Vir                       I                4
Alpha Amplitudes                           R   N=           4
 -6.66008684E-01 -1.55993741E-01 -6.66008684E-01 -1.55993741E-01
Alpha J Indexes                            I   N=           2
           0           4
Alpha I Indexes                            I   N=           4
           8          13          30          35
EOMEE transition A2 Excitation Energies    R   N=           1
  4.93764319E-01
Number of Active Occ                       I               10
Number of Active Vir                       I                4
Alpha Amplitudes                           R   N=           2
  6.87345140E-01  6.87345140E-01
Alpha J Indexes                            I   N=           2
           0           2
Alpha I Indexes                            I   N=           2
          17          39
EOMEE transition B1 Excitation Energies    R   N=           1
  6.53249006E-01
Number of Active Occ                       I               10
Number of Active Vir                       I                4
Alpha Amplitudes                           R   N=           4
 -6.21247721E-01 -2.89138120E-01 -6.21247721E-01 -2.89138120E-01
Alpha J Indexes                            I   N=           2
           0           4
Alpha I Indexes                            I   N=           4
           9          12          31          34
EOMEE transition B2 Excitation Energies    R   N=           1
  4.12637000E-01
Number of Active Occ                       I               10
Number of Active Vir                       I                4
Alpha Amplitudes                           R   N=           2
 -6.86119922E-01 -6.86119922E-01
Alpha J Indexes                            I   N=           2
           0           2
Alpha I Indexes                            I   N=           2
          16          38
EOMEE transition A1 Excitation Energies    R   N=           1
  4.57977434E-01
Number of Active Occ                       I               10
Number of Active Vir                       I                4
Alpha Amplitudes                           R   N=           4
 -6.79988715E-01  1.60478146E-01  6.79988715E-01 -1.60478146E-01
Alpha J Indexes                            I   N=           2
           0           4
Alpha I Indexes                            I   N=           4
           8          13          30          35
EOMEE transition A2 Excitation Energies    R   N=           1
  4.57823577E-01
Number of Active Occ                       I               10
Number of Active Vir                       I                4
Alpha Amplitudes                           R   N=           2
 -6.92074670E-01  6.92074670E-01
Alpha J Indexes                            I   N=           2
           0           2
Alpha I Indexes                            I   N=           2
          17          39
EOMEE transition B1 Excitation Energies    R   N=           1
  5.31897724E-01
Number of Active Occ                       I               10
Number of Active Vir                       I                4
Alpha Amplitudes                           R   N=           4
 -6.04824524E-01  3.58580422E-01  6.04824524E-01 -3.58580422E-01
Alpha J Indexes                            I   N=           2
           0           4
Alpha I Indexes                            I   N=           4
           9          12          31          34
EOMEE transition B2 Excitation Energies    R   N=           1
  3.56343685E-01
Number of Active Occ                       I               10
Number of Active Vir                       I                4
Alpha Amplitudes                           R   N=           2
  6.92681314E-01 -6.92681314E-01
Alpha J Indexes                            I   N=           2
           0           2
Alpha I Indexes                            I   N=           2
          16          38
Number of independent functions            I                7
Alpha MO coefficients                      R   N=          49
  9.94229268E-01  2.57070501E-02 -3.11380125E-16 -1.07274353E-16 -3.94670812E-03
 -5.51351160E-03 -5.51351160E-03 -2.34550429E-01  8.49357350E-01  5.14849658E-16
  6.21099562E-16 -1.15197296E-01  1.55292802E-01  1.55292802E-01  4.17963442E-16
 -4.94242633E-16 -6.05351770E-01  1.06818587E-15  2.06651833E-15  4.47696572E-01
 -4.47696572E-01  1.00741495E-01 -5.21851877E-01 -2.93662945E-15 -6.79753423E-15
 -7.67556056E-01  2.94463250E-01  2.94463250E-01  7.54985751E-16 -3.34582983E-15
  4.59992449E-16  1.00000000E+00 -4.58617206E-15  1.09343532E-15  2.32366621E-15
 -1.26260916E-01  8.13176765E-01  7.61573919E-15  3.13049820E-16 -7.40065744E-01
 -7.67594192E-01 -7.67594192E-01  1.46237189E-15 -8.77076189E-15  9.67057481E-01
 -2.25752856E-16  3.99680289E-15  8.01789836E-01 -8.01789836E-01
Alpha Orbital Energies                     R   N=           7
 -2.02472703E+01 -1.24777460E+00 -5.95851052E-01 -4.47884387E-01 -3.88956458E-01
  5.64152268E-01  6.93007283E-01
Total SCF Density                          R   N=          28
  2.10857520E+00 -4.60279598E-01  2.03516174E+00 -1.97678951E-15  4.65040956E-15
  7.46946623E-01 -3.94195739E-16  1.61180838E-15 -3.57013841E-16  1.99838843E+00
 -1.05920131E-01  5.89232004E-01  1.92049162E-15  8.65010039E-16  1.17546417E+00
 -1.74645188E-02 -8.25624384E-02 -5.09608130E-01 -7.90467325E-16 -4.73471443E-01
  6.66500978E-01 -1.74645188E-02 -8.25624384E-02  5.09608130E-01 -2.09186296E-16
 -4.73471443E-01 -1.67924221E-01  6.66500978E-01
Pure Switching                             I                1
Dipole_Data                                R   N=           3
 -1.62886586E-14 -3.79018884E-15 -1.53862540E+00
Quadrupole_Data                            R   N=           6
 -4.50351133E+00  1.14853842E-16 -6.14599104E+00  4.73905653E-15 -1.39958410E-15
 -5.46033401E+00
Octapole_Data                              R   N=          10
 -1.35413606E-14 -2.96706897E-16 -2.33832681E-15 -1.08292606E-15 -4.53667269E-01
  3.19719804E-17  4.69127649E-02 -6.99828626E-15 -6.11794364E-16 -3.84384548E-03
Hexadecapole_Data                          R   N=          15
 -7.25379979E+00 -1.19546414E-16 -1.90960581E+00 -1.36706913E-16 -3.29930547E+00
  7.00074178E-15 -1.90134120E-16  9.04613768E-16 -6.23832223E-16 -1.87533468E+00
 -2.92803800E-17 -1.45831303E+00  4.64902914E-15 -6.51175526E-16 -5.23578335E+00
