Jobname.Temp
SP        R                             STO-3G              
Number of atoms                            I                3
Charge                                     I                0
Multiplicity                               I                1
Number of electrons                        I               10
Number of alpha electrons                  I                5
Number of beta electrons                   I                5
Atomic numbers                             I   N=           3
           8           1           1
Current cartesian coordinates              R   N=           9
 -2.31445397E-17  2.24053282E-17  2.31384598E-01 -1.49418674E+00 -1.60579773E-16
 -9.25538391E-01  1.49418674E+00 -1.86628525E-17 -9.25538391E-01
Nuclear charges                            R   N=           3
  8.00000000E+00  1.00000000E+00  1.00000000E+00
Number of basis functions                  I                7
Number of contracted shells                I                4
Number of primitive shells                 I               12
Highest angular momentum                   I                1
Largest degree of contraction              I                3
Shell types                                I   N=           4
           0          -1           0           0
Number of primitives per shell             I   N=           4
           3           3           3           3
Shell to atom map                          I   N=           4
           1           1           2           3
Primitive exponents                        R   N=          12
  1.30709320E+02  2.38088610E+01  6.44360830E+00  5.03315130E+00  1.16959610E+00
  3.80389000E-01  3.42525091E+00  6.23913730E-01  1.68855400E-01  3.42525091E+00
  6.23913730E-01  1.68855400E-01
Contraction coefficients                   R   N=          12
  1.54328969E-01  5.35328136E-01  4.44634536E-01 -9.99672287E-02  3.99512825E-01
  7.00115461E-01  1.54328971E-01  5.35328142E-01  4.44634542E-01  1.54328971E-01
  5.35328142E-01  4.44634542E-01
P(S=P) Contraction coefficients            R   N=          12
  0.00000000E+00  0.00000000E+00  0.00000000E+00  1.55916268E-01  6.07683714E-01
  3.91957386E-01  0.00000000E+00  0.00000000E+00  0.00000000E+00  0.00000000E+00
  0.00000000E+00  0.00000000E+00
Coordinates of each shell                  R   N=          12
 -2.31445397E-17  2.24053282E-17  2.31384598E-01 -2.31445397E-17  2.24053282E-17
  2.31384598E-01 -1.49418674E+00 -1.60579773E-16 -9.25538391E-01  1.49418674E+00
 -1.86628525E-17 -9.25538391E-01
Overlap Matrix                             R   N=          28
  1.00000000E+00  2.36703937E-01  1.00000000E+00  2.27598078E-34 -2.83968810E-33
  1.00000000E+00  1.00394919E-33  5.69433557E-33 -1.46252936E-65  1.00000000E+00
 -5.22188463E-18  7.33189686E-17 -1.73592387E-49  3.47184774E-49  1.00000000E+00
  4.87518062E-02  4.47146878E-01 -2.99041532E-01 -3.66220255E-17 -2.31542693E-01
  1.00000000E+00  4.87518062E-02  4.47146878E-01  2.99041532E-01 -8.21924818E-18
 -2.31542693E-01  2.28238924E-01  1.00000000E+00
Core Hamiltonian Matrix                    R   N=          28
 -3.26736094E+01 -7.60160704E+00 -9.29147580E+00  0.00000000E+00  0.00000000E+00
 -7.56362101E+00  0.00000000E+00  0.00000000E+00  0.00000000E+00 -7.42214005E+00
  1.74153640E-02  2.07813311E-01  0.00000000E+00  0.00000000E+00 -7.50695983E+00
 -1.57818038E+00 -3.47334591E+00  1.92474988E+00 -2.44395601E-17  1.55452724E+00
 -4.90357867E+00 -1.57818038E+00 -3.47334591E+00 -1.92474988E+00 -5.48508193E-18
  1.55452724E+00 -1.42265627E+00 -4.90357867E+00
Orbital Coefficients CCMAN2 Alpha          R   N=          49
 -9.94229268E-01 -2.57070501E-02  3.68668719E-16  1.76663292E-16  3.94670812E-03
  5.51351160E-03  5.51351160E-03 -2.34550429E-01  8.49357350E-01 -1.09289849E-16
  1.77010352E-16 -1.15197296E-01  1.55292802E-01  1.55292802E-01  1.00741495E-01
 -5.21851877E-01  6.37281258E-15 -3.91095437E-15 -7.67556056E-01  2.94463250E-01
  2.94463250E-01  9.23444253E-16 -4.41447771E-15 -6.05351770E-01 -7.08170968E-16
 -5.63336199E-15  4.47696572E-01 -4.47696572E-01 -4.12921017E-16  1.83031215E-15
  3.75517406E-16 -1.00000000E+00  2.76024296E-15 -1.23567953E-15 -6.60212566E-16
 -1.26260916E-01  8.13176765E-01  3.98788424E-15  1.32638578E-16 -7.40065744E-01
 -7.67594192E-01 -7.67594192E-01  4.80518403E-16 -2.24820162E-15  9.67057481E-01
 -1.70241705E-16  4.26048086E-15  8.01789836E-01 -8.01789836E-01
Orbital Coefficients CCMAN2 Beta           R   N=          49
 -2.34550429E-01  8.49357350E-01 -1.09289849E-16  1.77010352E-16 -1.15197296E-01
  1.55292802E-01  1.55292802E-01  1.00741495E-01 -5.21851877E-01  6.37281258E-15
 -3.91095437E-15 -7.67556056E-01  2.94463250E-01  2.94463250E-01  9.23444253E-16
 -4.41447771E-15 -6.05351770E-01 -7.08170968E-16 -5.63336199E-15  4.47696572E-01
 -4.47696572E-01 -4.12921017E-16  1.83031215E-15  3.75517406E-16 -1.00000000E+00
  2.76024296E-15 -1.23567953E-15 -6.60212566E-16 -1.26260916E-01  8.13176765E-01
  3.98788424E-15  1.32638578E-16 -7.40065744E-01 -7.67594192E-01 -7.67594192E-01
  4.80518403E-16 -2.24820162E-15  9.67057481E-01 -1.70241705E-16  4.26048086E-15
  8.01789836E-01 -8.01789836E-01 -9.94229268E-01 -2.57070501E-02  3.68668719E-16
  1.76663292E-16  3.94670812E-03  5.51351160E-03  5.51351160E-03
EOMEE transition A1 Excitation Energies    R   N=           1
  5.64436023E-01
Number of Active Occ                       I                8
Number of Active Vir                       I                4
Alpha Amplitudes                           R   N=           4
 -6.66067294E-01 -1.55525171E-01 -6.66067294E-01 -1.55525171E-01
Alpha J Indexes                            I   N=           2
           0           4
Alpha I Indexes                            I   N=           4
           4           9          22          27
EOMEE transition A2 Excitation Energies    R   N=           1
  4.93723178E-01
Number of Active Occ                       I                8
Number of Active Vir                       I                4
Alpha Amplitudes                           R   N=           2
  6.87356448E-01  6.87356448E-01
Alpha J Indexes                            I   N=           2
           0           2
Alpha I Indexes                            I   N=           2
          13          31
EOMEE transition B1 Excitation Energies    R   N=           1
  6.53259960E-01
Number of Active Occ                       I                8
Number of Active Vir                       I                4
Alpha Amplitudes                           R   N=           4
 -6.21149692E-01 -2.89395379E-01 -6.21149692E-01 -2.89395379E-01
Alpha J Indexes                            I   N=           2
           0           4
Alpha I Indexes                            I   N=           4
           5           8          23          26
EOMEE transition B2 Excitation Energies    R   N=           1
  4.12606538E-01
Number of Active Occ                       I                8
Number of Active Vir                       I                4
Alpha Amplitudes                           R   N=           2
  6.86134670E-01  6.86134670E-01
Alpha J Indexes                            I   N=           2
           0           2
Alpha I Indexes                            I   N=           2
          12          30
EOMEE transition A1 Excitation Energies    R   N=           1
  4.58002602E-01
Number of Active Occ                       I                8
Number of Active Vir                       I                4
Alpha Amplitudes                           R   N=           4
  6.79942710E-01 -1.60927876E-01 -6.79942710E-01  1.60927876E-01
Alpha J Indexes                            I   N=           2
           0           4
Alpha I Indexes                            I   N=           4
           4           9          22          27
EOMEE transition A2 Excitation Energies    R   N=           1
  4.57802155E-01
Number of Active Occ                       I                8
Number of Active Vir                       I                4
Alpha Amplitudes                           R   N=           2
 -6.92085997E-01  6.92085997E-01
Alpha J Indexes                            I   N=           2
           0           2
Alpha I Indexes                            I   N=           2
          13          31
EOMEE transition B1 Excitation Energies    R   N=           1
  5.31885917E-01
Number of Active Occ                       I                8
Number of Active Vir                       I                4
Alpha Amplitudes                           R   N=           4
  6.04838401E-01 -3.58519948E-01 -6.04838401E-01  3.58519948E-01
Alpha J Indexes                            I   N=           2
           0           4
Alpha I Indexes                            I   N=           4
           5           8          23          26
EOMEE transition B2 Excitation Energies    R   N=           1
  3.56363994E-01
Number of Active Occ                       I                8
Number of Active Vir                       I                4
Alpha Amplitudes                           R   N=           2
 -6.92660542E-01  6.92660542E-01
Alpha J Indexes                            I   N=           2
           0           2
Alpha I Indexes                            I   N=           2
          12          30
Number of independent functions            I                7
Alpha MO coefficients                      R   N=          49
 -9.94229268E-01 -2.57070501E-02  3.68668719E-16  1.76663292E-16  3.94670812E-03
  5.51351160E-03  5.51351160E-03 -2.34550429E-01  8.49357350E-01 -1.09289849E-16
  1.77010352E-16 -1.15197296E-01  1.55292802E-01  1.55292802E-01  9.23444253E-16
 -4.41447771E-15 -6.05351770E-01 -7.08170968E-16 -5.63336199E-15  4.47696572E-01
 -4.47696572E-01  1.00741495E-01 -5.21851877E-01  6.37281258E-15 -3.91095437E-15
 -7.67556056E-01  2.94463250E-01  2.94463250E-01 -4.12921017E-16  1.83031215E-15
  3.75517406E-16 -1.00000000E+00  2.76024296E-15 -1.23567953E-15 -6.60212566E-16
 -1.26260916E-01  8.13176765E-01  3.98788424E-15  1.32638578E-16 -7.40065744E-01
 -7.67594192E-01 -7.67594192E-01  4.80518403E-16 -2.24820162E-15  9.67057481E-01
 -1.70241705E-16  4.26048086E-15  8.01789836E-01 -8.01789836E-01
Alpha Orbital Energies                     R   N=           7
 -2.02472703E+01 -1.24777460E+00 -5.95851052E-01 -4.47884387E-01 -3.88956458E-01
  5.64152268E-01  6.93007283E-01
Total SCF Density                          R   N=          28
  2.10853538E+00 -4.60177029E-01  2.03520625E+00 -4.87281892E-16 -1.63171054E-15
  7.47013408E-01 -4.13217484E-16  8.02116963E-16  8.66814499E-17  1.99838410E+00
 -1.05945357E-01  5.89197880E-01 -2.69642039E-15  2.95936125E-16  1.17547658E+00
 -1.75169249E-02 -8.25777846E-02 -5.09591386E-01 -4.65373522E-16 -4.73464896E-01
  6.66464901E-01 -1.75169249E-02 -8.25777846E-02  5.09591386E-01 -3.53914925E-16
 -4.73464896E-01 -1.67907075E-01  6.66464901E-01
Pure Switching                             I                1
Dipole_Data                                R   N=           3
  1.27235379E-14 -1.40984714E-15 -1.53878470E+00
Quadrupole_Data                            R   N=           6
 -4.50326014E+00 -6.25401866E-17 -6.14595651E+00 -2.46625093E-15 -6.00644457E-16
 -5.46020681E+00
Octapole_Data                              R   N=          10
  1.19293326E-14 -5.75137798E-17  1.80572678E-15 -2.98123744E-16 -4.53819993E-01
 -3.49253864E-17  4.68845862E-02  4.77682497E-15 -2.03663578E-16 -3.96884721E-03
Hexadecapole_Data                          R   N=          15
 -7.25336069E+00 -1.26426760E-16 -1.90955053E+00 -1.66337210E-16 -3.29926341E+00
 -5.78328519E-15 -9.45912511E-17 -8.72142182E-16 -3.49273405E-16 -1.87521040E+00
 -3.92410569E-17 -1.45828394E+00 -3.54073889E-15 -3.50299704E-16 -5.23563246E+00
