                  Welcome to Q-Chem
     A Quantum Leap Into The Future Of Chemistry


 Q-Chem 5.4 (devel), Q-Chem, Inc., Pleasanton, CA (2021)

 E. Epifanovsky,  A. T. B. Gilbert,  Xintian Feng,  Joonho Lee,  Yuezhi Mao,  
 N. Mardirossian,  P. Pokhilko,  A. White,  M. Wormit,  M. P. Coons,  
 A. L. Dempwolff,  Zhengting Gan,  D. Hait,  P. R. Horn,  L. D. Jacobson,  
 I. Kaliman,  J. Kussmann,  A. W. Lange,  Ka Un Lao,  D. S. Levine,  Jie Liu,  
 S. C. McKenzie,  A. F. Morrison,  K. Nanda,  F. Plasser,  D. R. Rehn,  
 M. L. Vidal,  Zhi-Qiang You,  Ying Zhu,  B. Alam,  B. Albrecht,  
 A. Aldossary,  E. Alguire,  J. H. Andersen,  D. Barton,  K. Begam,  A. Behn,  
 Y. A. Bernard,  E. J. Berquist,  H. Burton,  A. Carreras,  K. Carter-Fenk,  
 R. Chakraborty,  A. D. Chien,  K. D. Closser,  V. Cofer-Shabica,  
 S. Dasgupta,  Jia Deng,  M. de Wergifosse,  M. Diedenhofen,  Hainam Do,  
 S. Ehlert,  Po-Tung Fang,  S. Fatehi,  Qingguo Feng,  T. Friedhoff,  
 J. Gayvert,  Qinghui Ge,  G. Gidofalvi,  M. Goldey,  J. Gomes,  
 C. Gonzalez-Espinoza,  S. Gulania,  A. Gunina,  M. W. D. Hanson-Heine,  
 P. H. P. Harbach,  A. W. Hauser,  M. F. Herbst,  M. Hernandez Vera,  
 M. Hodecker,  Z. C. Holden,  S. Houck,  Xunkun Huang,  Kerwin Hui,  
 B. C. Huynh,  M. Ivanov,  Hyunjun Ji,  Hanjie Jiang,  B. Kaduk,  S. Kaehler,  
 K. Khistyaev,  Jaehoon Kim,  P. Klunzinger,  Z. Koczor-Benda,  
 Joong Hoon Koh,  D. Kosenkov,  L. Koulias,  T. Kowalczyk,  C. M. Krauter,  
 K. Kue,  A. Kunitsa,  T. Kus,  A. Landau,  K. V. Lawler,  D. Lefrancois,  
 S. Lehtola,  Rain Li,  Yi-Pei Li,  Jiashu Liang,  M. Liebenthal,  
 Hung-Hsuan Lin,  You-Sheng Lin,  Fenglai Liu,  Kuan-Yu Liu,  
 M. Loipersberger,  A. Luenser,  A. Manjanath,  P. Manohar,  E. Mansoor,  
 S. F. Manzer,  Shan-Ping Mao,  A. V. Marenich,  T. Markovich,  S. Mason,  
 S. A. Maurer,  P. F. McLaughlin,  M. F. S. J. Menger,  J.-M. Mewes,  
 S. A. Mewes,  P. Morgante,  J. W. Mullinax,  K. J. Oosterbaan,  G. Paran,  
 Alexander C. Paul,  Suranjan K. Paul,  F. Pavosevic,  Zheng Pei,  S. Prager,  
 E. I. Proynov,  E. Ramos,  B. Rana,  A. E. Rask,  A. Rettig,  R. M. Richard,  
 F. Rob,  E. Rossomme,  T. Scheele,  M. Scheurer,  M. Schneider,  
 N. Sergueev,  S. M. Sharada,  W. Skomorowski,  D. W. Small,  C. J. Stein,  
 Yu-Chuan Su,  E. J. Sundstrom,  Zhen Tao,  J. Thirman,  T. Tsuchimochi,  
 N. M. Tubman,  S. P. Veccham,  O. Vydrov,  J. Wenzel,  J. Witte,  A. Yamada,  
 Kun Yao,  S. Yeganeh,  S. R. Yost,  A. Zech,  Igor Ying Zhang,  Xing Zhang,  
 Yu Zhang,  D. Zuev,  A. Aspuru-Guzik,  A. T. Bell,  N. A. Besley,  
 K. B. Bravaya,  B. R. Brooks,  D. Casanova,  Jeng-Da Chai,  S. Coriani,  
 C. J. Cramer,  A. E. DePrince, III,  R. A. DiStasio Jr.,  A. Dreuw,  
 B. D. Dunietz,  T. R. Furlani,  W. A. Goddard III,  S. Grimme,  
 S. Hammes-Schiffer,  T. Head-Gordon,  W. J. Hehre,  Chao-Ping Hsu,  
 T.-C. Jagau,  Yousung Jung,  A. Klamt,  Jing Kong,  D. S. Lambrecht,  
 WanZhen Liang,  N. J. Mayhall,  C. W. McCurdy,  J. B. Neaton,  
 C. Ochsenfeld,  J. A. Parkhill,  R. Peverati,  V. A. Rassolov,  Yihan Shao,  
 L. V. Slipchenko,  T. Stauch,  R. P. Steele,  J. E. Subotnik,  
 A. J. W. Thom,  A. Tkatchenko,  D. G. Truhlar,  T. Van Voorhis,  
 T. A. Wesolowski,  K. B. Whaley,  H. L. Woodcock III,  P. M. Zimmerman,  
 S. Faraji,  P. M. W. Gill,  M. Head-Gordon,  J. M. Herbert,  A. I. Krylov

 Additional authors for Version 5.4.1: 
 S. Kotaru,  Shaozhi Li,  Xiangyuan Li,  F. Matz,  A. Molle,  Haisheng Ren,  
 Yingli Su,  Hung-Yi Tsai,  C. Utku,  Fang Wang

 Contributors to earlier versions of Q-Chem not listed above: 
 R. D. Adamson,  B. Austin,  R. Baer,  J. Baker,  G. J. O. Beran,  
 K. Brandhorst,  S. T. Brown,  E. F. C. Byrd,  A. K. Chakraborty,  
 G. K. L. Chan,  Chun-Min Chang,  Yunqing Chen,  C.-L. Cheng,  
 Siu Hung Chien,  D. M. Chipman,  D. L. Crittenden,  H. Dachsel,  
 R. J. Doerksen,  A. D. Dutoi,  R. G. Edgar,  J. Fosso-Tande,  
 L. Fusti-Molnar,  D. Ghosh,  A. Ghysels,  A. Golubeva-Zadorozhnaya,  
 J. Gonthier,  M. S. Gordon,  S. R. Gwaltney,  G. Hawkins,  J. E. Herr,  
 A. Heyden,  S. Hirata,  E. G. Hohenstein,  G. Kedziora,  F. J. Keil,  
 C. Kelley,  Jihan Kim,  R. A. King,  R. Z. Khaliullin,  P. P. Korambath,  
 W. Kurlancheek,  A. Laurent,  A. M. Lee,  M. S. Lee,  S. V. Levchenko,  
 Ching Yeh Lin,  D. Liotard,  E. Livshits,  R. C. Lochan,  I. Lotan,  
 L. A. Martinez-Martinez,  P. E. Maslen,  N. Nair,  D. P. O'Neill,  
 D. Neuhauser,  E. Neuscamman,  C. M. Oana,  R. Olivares-Amaya,  R. Olson,  
 T. M. Perrine,  B. Peters,  P. A. Pieniazek,  A. Prociuk,  Y. M. Rhee,  
 J. Ritchie,  M. A. Rohrdanz,  E. Rosta,  N. J. Russ,  H. F. Schaefer III,  
 M. W. Schmidt,  N. E. Schultz,  S. Sharma,  N. Shenvi,  C. D. Sherrill,  
 A. C. Simmonett,  A. Sodt,  T. Stein,  D. Stuck,  K. S. Thanthiriwatte,  
 V. Vanovschi,  L. Vogt,  Tao Wang,  A. Warshel,  M. A. Watson,  
 C. F. Williams,  Q. Wu,  X. Xu,  Jun Yang,  W. Zhang,  Yan Zhao

 Please cite Q-Chem as follows:
 Y. Shao et al., Mol. Phys. 113, 184-215 (2015)
 DOI: 10.1080/00268976.2014.952696

 Q-Chem 5.4.1 for Intel X86 EM64T Linux

 Parts of Q-Chem use Armadillo 9.900.5 (Nocturnal Misbehaviour).
 http://arma.sourceforge.net/

 Q-Chem begins on Mon Sep  5 11:53:34 2022  

orc43
 Host: 0

     Scratch files written to /scratch/yongbin/qchem4251//
 Processing $rem in /home/users/yongbin/software/yongbin_quantum/config/preferences:
 Processing $rem in /home/users/yongbin/.qchemrc:
 Core orbitals will be frozen

 Checking the input file for inconsistencies... 	...done.

--------------------------------------------------------------
User input:
--------------------------------------------------------------
$comment
Water molecule
$end

$molecule
0 1
O
H O 1.0
H O 1.0 H 104.5
$end

$rem
!   n_frozen_core = 0
   print_qis = true
   BASIS                = sto-3g
!   SYMMETRY             = true
!   CC_SYMMETRY          = false
   METHOD               = eom-ccsd
   EE_SINGLETS          = [1,1,1,1] ! Compute two EOM-EE singlet excited states
   EE_TRIPLETS          = [1,1,1,1] ! Compute two EOM-EE triplet excited states
   CC_REF_PROP          = true ! Compute ground state properties
   CC_EOM_PROP          = true ! Compute excited state properties
!   CC_OSFNO             = true
   GUI                  = 2
$end
--------------------------------------------------------------
 ----------------------------------------------------------------
             Standard Nuclear Orientation (Angstroms)
    I     Atom           X                Y                Z
 ----------------------------------------------------------------
    1      O      -0.0000000000     0.0000000000     0.1224434560
    2      H      -0.7906895737    -0.0000000000    -0.4897738240
    3      H       0.7906895737    -0.0000000000    -0.4897738240
 ----------------------------------------------------------------
 Molecular Point Group                 C2v   NOp =  4
 Largest Abelian Subgroup              C2v   NOp =  4
 Nuclear Repulsion Energy =           8.80146557 hartrees
 There are        5 alpha and        5 beta electrons
 Requested basis set is STO-3G
 There are 4 shells and 7 basis functions
 Total memory of 2000 MB is distributed as follows: 
   MEM_STATIC is set to 192 MB
   QALLOC/CCMAN JOB total memory use is  1808 MB
 Warning: actual memory use might exceed 2000 MB

 Total QAlloc Memory Limit   2000 MB
 Mega-Array Size       188 MB
 MEM_STATIC part       192 MB

                       Distance Matrix (Angstroms)
             O (  1)   H (  2)
   H (  2)  1.000000
   H (  3)  1.000000  1.581379

 A cutoff of  1.0D-14 yielded     10 shell pairs
 There are        34 function pairs
 Smallest overlap matrix eigenvalue = 3.70E-01

 Scale SEOQF with 1.000000e+00/1.000000e+00/1.000000e+00

 Standard Electronic Orientation quadrupole field applied
 Nucleus-field energy     =    -0.0000000002 hartrees
 Guess from superposition of atomic densities
 Warning:  Energy on first SCF cycle will be non-variational
 SAD guess density has 10.000000 electrons

 -----------------------------------------------------------------------
  General SCF calculation program by
  Eric Jon Sundstrom, Paul Horn, Yuezhi Mao, Dmitri Zuev, Alec White,
  David Stuck, Shaama M.S., Shane Yost, Joonho Lee, David Small,
  Daniel Levine, Susi Lehtola, Hugh Burton, Evgeny Epifanovsky,
  Bang C. Huynh
 -----------------------------------------------------------------------
 Hartree-Fock
 using 20 threads for integral computing
 -------------------------------------------------------
 OpenMP Integral computing Module                
 Release: version 1.0, May 2013, Q-Chem Inc. Pittsburgh 
 -------------------------------------------------------
 A restricted SCF calculation will be
 performed using DIIS
 SCF converges when DIIS error is below 1.0e-08
 ---------------------------------------
  Cycle       Energy         DIIS error
 ---------------------------------------
    1     -74.5770846727      3.89e-01  
    2     -74.9222251362      6.75e-02  
    3     -74.9641137605      8.61e-03  
    4     -74.9646389918      1.60e-03  
    5     -74.9646625363      1.20e-05  
    6     -74.9646625387      4.86e-06  
    7     -74.9646625391      7.13e-08  
    8     -74.9646625391      3.92e-11  Convergence criterion met
 ---------------------------------------
 SCF time:   CPU 0.85s  wall 1.00s 
 SCF   energy in the final basis set =      -74.9646625391
 Total energy in the final basis set =      -74.9646625391


 ------------------------------------------------------------------------------

   CCMAN2: suite of methods based on coupled cluster
           and equation of motion theories.

   Components:
   * libvmm-1.3-trunk
     by Evgeny Epifanovsky, Ilya Kaliman.
   * libtensor-2.5-trunk
     by Evgeny Epifanovsky, Michael Wormit, Dmitry Zuev, Sam Manzer, 
        Ilya Kaliman.
   * libcc-2.5-trunk
     by Evgeny Epifanovsky, Arik Landau, Tomasz Kus, Kirill Khistyaev, 
        Dmitry Zuev, Prashant Manohar, Xintian Feng, Anna Krylov, 
        Matthew Goldey, Alec White, Thomas Jagau, Kaushik Nanda, 
        Anastasia Gunina, Alexander Kunitsa, Joonho Lee.

   CCMAN original authors:
   Anna I. Krylov, C. David Sherrill, Steven R. Gwaltney,
   Edward F. C. Byrd (2000)
   Sergey V. Levchenko, Lyudmila V. Slipchenko, Tao Wang,
   Ana-Maria C. Cristian (2003)
   Piotr A. Pieniazek, C. Melania Oana, Evgeny Epifanovsky (2007)
   Prashant Manohar (2009)

 ------------------------------------------------------------------------------


 Allocating and initializing 1808MB of RAM...
 Calculation will run on 20 cores.


 Alpha MOs, Restricted
 -- Occupied --                  
-20.247  -1.248  -0.596  -0.448  -0.389
  1 A1    2 A1    1 B1    3 A1    1 B2                                         
 -- Virtual --                   
  0.564   0.693
  4 A1    2 B1                                                                 

 Beta MOs, Restricted
 -- Occupied --                  
-20.247  -1.248  -0.596  -0.448  -0.389
  1 A1    2 A1    1 B1    3 A1    1 B2                                         
 -- Virtual --                   
  0.564   0.693
  4 A1    2 B1                                                                 

 Occupation and symmetry of molecular orbitals

 Point group: C2v (4 irreducible representations).

                           A1   A2   B1   B2    All 
 ----------------------------------------------------
 All molecular orbitals:
  - Alpha                  4    0    2    1     7   
  - Beta                   4    0    2    1     7   
 ----------------------------------------------------
 Alpha orbitals:
  - Frozen occupied        1    0    0    0     1   
  - Active occupied        2    0    1    1     4   
  - Active virtual         1    0    1    0     2   
  - Frozen virtual         0    0    0    0     0   
 ----------------------------------------------------
 Beta orbitals:
  - Frozen occupied        1    0    0    0     1   
  - Active occupied        2    0    1    1     4   
  - Active virtual         1    0    1    0     2   
  - Frozen virtual         0    0    0    0     0   
 ----------------------------------------------------

 Import integrals:   CPU 0.00 s  wall 0.00 s

 Import integrals:   CPU 0.11 s  wall 0.02 s

 Run QIS:   CPU 0.01 s  wall 0.01 s

 MP2 amplitudes:   CPU 0.32 s  wall 0.05 s

Running a double precision version
           CCSD T amplitudes will be solved using DIIS.

           Start     Size      MaxIter   EConv     TConv     
           3         7         100       1.00e-06  1.00e-04  
 ------------------------------------------------------------------------------
           Energy (a.u.)   Ediff      Tdiff       Comment
 ------------------------------------------------------------------------------
           -75.00372747                           
     1     -75.01425137   1.05e-02   1.74e-01     
     2     -75.01759915   3.35e-03   4.59e-02     
     3     -75.01881000   1.21e-03   1.62e-02     
     4     -75.01961046   8.00e-04   1.03e-02     Switched to DIIS steps.
     5     -75.01963830   2.78e-05   1.22e-03     
     6     -75.01964181   3.51e-06   3.16e-04     
     7     -75.01964168   1.36e-07   1.83e-05     
 ------------------------------------------------------------------------------
           -75.01964168                           CCSD T converged.

End of double precision
 SCF energy                 = -74.96466254
 MP2 energy                 = -75.00372747
 CCSD correlation energy    =  -0.05497914
 CCSD total energy          = -75.01964168

 CCSD  T1^2 = 0.0005  T2^2 = 0.0318  Leading amplitudes:

 Amplitude    Orbitals with energies
 -0.0156837420       3 (A1) A                  ->    4 (A1) A                   
                    -0.4479                          0.5642                     
 -0.0156837420       3 (A1) B                  ->    4 (A1) B                   
                    -0.4479                          0.5642                     
  0.0031248357       1 (B1) A                  ->    2 (B1) A                   
                    -0.5959                          0.6930                     
  0.0031248357       1 (B1) B                  ->    2 (B1) B                   
                    -0.5959                          0.6930                     

 Amplitude    Orbitals with energies
 -0.0840095876       1 (B1) A      1 (B1) B    ->    2 (B1) A      2 (B1) B     
                    -0.5959       -0.5959            0.6930        0.6930       
  0.0840095876       1 (B1) A      1 (B1) B    ->    2 (B1) B      2 (B1) A     
                    -0.5959       -0.5959            0.6930        0.6930       
  0.0840095876       1 (B1) B      1 (B1) A    ->    2 (B1) A      2 (B1) B     
                    -0.5959       -0.5959            0.6930        0.6930       
 -0.0840095876       1 (B1) B      1 (B1) A    ->    2 (B1) B      2 (B1) A     
                    -0.5959       -0.5959            0.6930        0.6930       

 Computing CCSD intermediates for later calculations in double precision
 Finished.

Running a double precision version
           CCSD Lambda amplitudes will be solved using DIIS.
           Start     Size      MaxIter   EConv     LConv     
           3         7         100       1.00e-06  1.00e-04  
 ------------------------------------------------------------------------------
            Enorm      Ldiff       Comment
 ------------------------------------------------------------------------------
     1     5.46e-03   4.23e-03     
     2     1.45e-03   1.29e-03     
     3     5.12e-04   4.38e-04     
     4     1.03e-04   2.39e-04     Switched to DIIS steps.
     5     1.89e-05   4.42e-05     
     6     2.61e-06   2.88e-06     
     7     3.88e-07   1.74e-07     
 ------------------------------------------------------------------------------
                                   CCSD Lambda converged.

 Computing density matrices in double precision...
 Computing density matrices... Done.
 Reference state properties
 Dipole moment (a.u.): 0.605405 (X 0.000000, Y 0.000000, Z -0.605405)
 R-squared (a.u.): 18.583703 (XX 7.813252, YY 4.569368, ZZ 6.201083)
 Gauge origin (a.u.): (0.000000, 0.000000, 0.000000)
 Angular momentum (a.u.) against gauge origin: 
 (X 0.000000i, Y 0.000000i, Z 0.000000i)
 Traces of the OPDMs: Tr(AA) 5.000000, Tr(BB) 5.000000
 Density matrix was written to a file for further analysis.

 CCSD calculation:   CPU 3.52 s  wall 0.87 s

        Solving for EOMEE-CCSD A1 singlet states.

Running a double precision version
        EOMEE-CCSD/MP2 right amplitudes will be solved using Davidson.
        Amplitudes will be solved using standard  algorithm.
     Hard-coded thresholds: 
     LinDepThresh=1.00e-15  NormThresh=1.00e-06  ReorthogonThresh=1.00e-02

      Roots     MaxVec    MaxIter   Precond   Conv      Shift    
      1         120       60        1         1.00e-05  0.00e+00  
 ------------------------------------------------------------------------------
      Iter ConvRoots NVecs ResNorm Current eigenvalues (eV)
 ------------------------------------------------------------------------------
      0    0      1     6.96e-02   17.6582   
      1    0      2     1.88e-02   15.8036   
      2    0      3     7.85e-04   15.3773   
      3    0      4     7.46e-05   15.3590   
      4    1      5     9.20e-06   15.3591*  

     Davidson procedure converged

 EOMEE transition 1/A1
 Total energy = -74.45520566 a.u.  Excitation energy = 15.35908530 eV.
 R0^2 = 0.0012  R1^2 = 0.9437  R2^2 = 0.0563  Res^2 = 9.20e-06
 Conv-d = yes

 Amplitude    Transitions between orbitals
 -0.6660672943       3 (A1) A                  ->    4 (A1) A                   
 -0.6660672943       3 (A1) B                  ->    4 (A1) B                   
 -0.1555251713       1 (B1) A                  ->    2 (B1) A                   
 -0.1555251713       1 (B1) B                  ->    2 (B1) B                   
  0.0635099486       2 (A1) A                  ->    4 (A1) A                   
  0.0635099486       2 (A1) B                  ->    4 (A1) B                   
 -0.1261326738       3 (A1) A      3 (A1) B    ->    4 (A1) A      4 (A1) B     
  0.1261326738       3 (A1) A      3 (A1) B    ->    4 (A1) B      4 (A1) A     
  0.1261326738       3 (A1) B      3 (A1) A    ->    4 (A1) A      4 (A1) B     
 -0.1261326738       3 (A1) B      3 (A1) A    ->    4 (A1) B      4 (A1) A     
 -0.1013389604       3 (A1) A      3 (A1) B    ->    2 (B1) A      2 (B1) B     
  0.1013389604       3 (A1) A      3 (A1) B    ->    2 (B1) B      2 (B1) A     
  0.1013389604       3 (A1) B      3 (A1) A    ->    2 (B1) A      2 (B1) B     
 -0.1013389604       3 (A1) B      3 (A1) A    ->    2 (B1) B      2 (B1) A     
  0.0777986023       3 (A1) A      1 (B1) B    ->    4 (A1) A      2 (B1) B     
 -0.0777986023       3 (A1) A      1 (B1) B    ->    2 (B1) B      4 (A1) A     
  0.0777986023       1 (B1) A      3 (A1) B    ->    2 (B1) A      4 (A1) B     
 -0.0777986023       1 (B1) A      3 (A1) B    ->    4 (A1) B      2 (B1) A     
 -0.0777986023       3 (A1) B      1 (B1) A    ->    2 (B1) A      4 (A1) B     
  0.0777986023       3 (A1) B      1 (B1) A    ->    4 (A1) B      2 (B1) A     
 -0.0777986023       1 (B1) B      3 (A1) A    ->    4 (A1) A      2 (B1) B     
  0.0777986023       1 (B1) B      3 (A1) A    ->    2 (B1) B      4 (A1) A     
  0.0670706656       1 (B1) A      1 (B1) B    ->    4 (A1) A      4 (A1) B     
 -0.0670706656       1 (B1) A      1 (B1) B    ->    4 (A1) B      4 (A1) A     
 -0.0670706656       1 (B1) B      1 (B1) A    ->    4 (A1) A      4 (A1) B     
  0.0670706656       1 (B1) B      1 (B1) A    ->    4 (A1) B      4 (A1) A     
  0.0565952576       3 (A1) A      1 (B1) B    ->    2 (B1) A      4 (A1) B     
 -0.0565952576       3 (A1) A      1 (B1) B    ->    4 (A1) B      2 (B1) A     
  0.0565952576       1 (B1) A      3 (A1) B    ->    4 (A1) A      2 (B1) B     
 -0.0565952576       1 (B1) A      3 (A1) B    ->    2 (B1) B      4 (A1) A     
 -0.0565952576       3 (A1) B      1 (B1) A    ->    4 (A1) A      2 (B1) B     
  0.0565952576       3 (A1) B      1 (B1) A    ->    2 (B1) B      4 (A1) A     
 -0.0565952576       1 (B1) B      3 (A1) A    ->    2 (B1) A      4 (A1) B     
  0.0565952576       1 (B1) B      3 (A1) A    ->    4 (A1) B      2 (B1) A     
 -0.0359529800       2 (A1) A      1 (B1) B    ->    4 (A1) A      2 (B1) B     
  0.0359529800       2 (A1) A      1 (B1) B    ->    2 (B1) B      4 (A1) A     
 -0.0359529800       1 (B1) A      2 (A1) B    ->    2 (B1) A      4 (A1) B     
  0.0359529800       1 (B1) A      2 (A1) B    ->    4 (A1) B      2 (B1) A     
  0.0359529800       2 (A1) B      1 (B1) A    ->    2 (B1) A      4 (A1) B     
 -0.0359529800       2 (A1) B      1 (B1) A    ->    4 (A1) B      2 (B1) A     
  0.0359529800       1 (B1) B      2 (A1) A    ->    4 (A1) A      2 (B1) B     
 -0.0359529800       1 (B1) B      2 (A1) A    ->    2 (B1) B      4 (A1) A     
 -0.0240696530       2 (A1) A      3 (A1) B    ->    2 (B1) A      2 (B1) B     
 -0.0240696530       3 (A1) A      2 (A1) B    ->    2 (B1) A      2 (B1) B     
  0.0240696530       2 (A1) A      3 (A1) B    ->    2 (B1) B      2 (B1) A     
  0.0240696530       3 (A1) A      2 (A1) B    ->    2 (B1) B      2 (B1) A     
  0.0240696530       3 (A1) B      2 (A1) A    ->    2 (B1) A      2 (B1) B     
  0.0240696530       2 (A1) B      3 (A1) A    ->    2 (B1) A      2 (B1) B     
 -0.0240696530       2 (A1) B      3 (A1) A    ->    2 (B1) B      2 (B1) A     
 -0.0240696530       3 (A1) B      2 (A1) A    ->    2 (B1) B      2 (B1) A     
  0.0210607521       3 (A1) A      1 (B1) A    ->    4 (A1) A      2 (B1) A     
 -0.0210607521       3 (A1) A      1 (B1) A    ->    2 (B1) A      4 (A1) A     
 -0.0210607521       1 (B1) A      3 (A1) A    ->    4 (A1) A      2 (B1) A     
  0.0210607521       1 (B1) A      3 (A1) A    ->    2 (B1) A      4 (A1) A     
  0.0210607521       3 (A1) B      1 (B1) B    ->    4 (A1) B      2 (B1) B     
 -0.0210607521       3 (A1) B      1 (B1) B    ->    2 (B1) B      4 (A1) B     
 -0.0210607521       1 (B1) B      3 (A1) B    ->    4 (A1) B      2 (B1) B     
  0.0210607521       1 (B1) B      3 (A1) B    ->    2 (B1) B      4 (A1) B     
 -0.0193369768       2 (A1) A      1 (B1) A    ->    4 (A1) A      2 (B1) A     
  0.0193369768       2 (A1) A      1 (B1) A    ->    2 (B1) A      4 (A1) A     
  0.0193369768       1 (B1) A      2 (A1) A    ->    4 (A1) A      2 (B1) A     
 -0.0193369768       1 (B1) A      2 (A1) A    ->    2 (B1) A      4 (A1) A     
 -0.0193369768       2 (A1) B      1 (B1) B    ->    4 (A1) B      2 (B1) B     
  0.0193369768       2 (A1) B      1 (B1) B    ->    2 (B1) B      4 (A1) B     
  0.0193369768       1 (B1) B      2 (A1) B    ->    4 (A1) B      2 (B1) B     
 -0.0193369768       1 (B1) B      2 (A1) B    ->    2 (B1) B      4 (A1) B     
  0.0166592906       2 (A1) A      2 (A1) B    ->    2 (B1) A      2 (B1) B     
 -0.0166592906       2 (A1) A      2 (A1) B    ->    2 (B1) B      2 (B1) A     
 -0.0166592906       2 (A1) B      2 (A1) A    ->    2 (B1) A      2 (B1) B     
  0.0166592906       2 (A1) B      2 (A1) A    ->    2 (B1) B      2 (B1) A     
 -0.0166408257       2 (A1) A      1 (B1) B    ->    2 (B1) A      4 (A1) B     
  0.0166408257       2 (A1) A      1 (B1) B    ->    4 (A1) B      2 (B1) A     
 -0.0166408257       1 (B1) A      2 (A1) B    ->    4 (A1) A      2 (B1) B     
  0.0166408257       1 (B1) A      2 (A1) B    ->    2 (B1) B      4 (A1) A     
  0.0166408257       2 (A1) B      1 (B1) A    ->    4 (A1) A      2 (B1) B     
 -0.0166408257       2 (A1) B      1 (B1) A    ->    2 (B1) B      4 (A1) A     
  0.0166408257       1 (B1) B      2 (A1) A    ->    2 (B1) A      4 (A1) B     
 -0.0166408257       1 (B1) B      2 (A1) A    ->    4 (A1) B      2 (B1) A     
  0.0163538451       1 (B2) A      1 (B2) B    ->    4 (A1) A      4 (A1) B     
 -0.0163538451       1 (B2) A      1 (B2) B    ->    4 (A1) B      4 (A1) A     
 -0.0163538451       1 (B2) B      1 (B2) A    ->    4 (A1) A      4 (A1) B     
  0.0163538451       1 (B2) B      1 (B2) A    ->    4 (A1) B      4 (A1) A     
  0.0130603588       2 (A1) A      3 (A1) B    ->    4 (A1) A      4 (A1) B     
  0.0130603588       3 (A1) A      2 (A1) B    ->    4 (A1) A      4 (A1) B     
 -0.0130603588       2 (A1) A      3 (A1) B    ->    4 (A1) B      4 (A1) A     
 -0.0130603588       3 (A1) A      2 (A1) B    ->    4 (A1) B      4 (A1) A     
 -0.0130603588       3 (A1) B      2 (A1) A    ->    4 (A1) A      4 (A1) B     
 -0.0130603588       2 (A1) B      3 (A1) A    ->    4 (A1) A      4 (A1) B     
  0.0130603588       2 (A1) B      3 (A1) A    ->    4 (A1) B      4 (A1) A     
  0.0130603588       3 (A1) B      2 (A1) A    ->    4 (A1) B      4 (A1) A     
  0.0120196208       1 (B2) A      1 (B2) B    ->    2 (B1) A      2 (B1) B     
 -0.0120196208       1 (B2) A      1 (B2) B    ->    2 (B1) B      2 (B1) A     
 -0.0120196208       1 (B2) B      1 (B2) A    ->    2 (B1) A      2 (B1) B     
  0.0120196208       1 (B2) B      1 (B2) A    ->    2 (B1) B      2 (B1) A     
 -0.0104759201       2 (A1) A      2 (A1) B    ->    4 (A1) A      4 (A1) B     
  0.0104759201       2 (A1) A      2 (A1) B    ->    4 (A1) B      4 (A1) A     
  0.0104759201       2 (A1) B      2 (A1) A    ->    4 (A1) A      4 (A1) B     
 -0.0104759201       2 (A1) B      2 (A1) A    ->    4 (A1) B      4 (A1) A     
 -0.0019177051       1 (B1) A      1 (B1) B    ->    2 (B1) A      2 (B1) B     
  0.0019177051       1 (B1) A      1 (B1) B    ->    2 (B1) B      2 (B1) A     
  0.0019177051       1 (B1) B      1 (B1) A    ->    2 (B1) A      2 (B1) B     
 -0.0019177051       1 (B1) B      1 (B1) A    ->    2 (B1) B      2 (B1) A     

              Summary of significant orbitals:

               Number  Type             Irrep      Energy
               2       Occ  Alpha       2 (A1)     -1.2478
               4       Occ  Alpha       3 (A1)     -0.4479
               3       Occ  Alpha       1 (B1)     -0.5959
               5       Occ  Alpha       1 (B2)     -0.3890
               2       Occ  Beta        2 (A1)     -1.2478
               4       Occ  Beta        3 (A1)     -0.4479
               3       Occ  Beta        1 (B1)     -0.5959
               5       Occ  Beta        1 (B2)     -0.3890
               6       Vir  Alpha       4 (A1)      0.5642
               7       Vir  Alpha       2 (B1)      0.6930
               6       Vir  Beta        4 (A1)      0.5642
               7       Vir  Beta        2 (B1)      0.6930


 EEs and amplitudes of EOMEE has be exported to fchk file
Running a double precision version
      EOM-CCSD/MP2 left amplitudes will be solved using Davidson.
        Amplitudes will be solved using MOM  algorithm.
     Hard-coded thresholds: 
     LinDepThresh=1.00e-15  NormThresh=1.00e-06  ReorthogonThresh=1.00e-02

      Roots     MaxVec    MaxIter   Precond   Conv      Shift    
      1         120       60        1         1.00e-05  0.00e+00  
 ------------------------------------------------------------------------------
      Iter ConvRoots NVecs ResNorm Current eigenvalues (eV)
 ------------------------------------------------------------------------------
      0    0      1     5.48e-04   15.3591   
      1    0      2     7.73e-05   15.3588   
      2    1      3     5.95e-06   15.3589*  

     Davidson procedure converged

 Excited state properties for  EOMEE-CCSD transition 1/A1
 Dipole moment (a.u.): 0.119706 (X 0.000000, Y 0.000000, Z 0.119706)
 R-squared (a.u.): 19.546592 (XX 8.795643, YY 4.640223, ZZ 6.110726)
 Gauge origin (a.u.): (0.000000, 0.000000, 0.000000)
 Angular momentum (a.u.) against gauge origin: 
 (X 0.000000i, Y 0.000000i, Z 0.000000i)
 Traces of the OPDMs: Tr(AA) 5.000000, Tr(BB) 5.000000

        Solving for EOMEE-CCSD A2 singlet states.

Running a double precision version
        EOMEE-CCSD/MP2 right amplitudes will be solved using Davidson.
        Amplitudes will be solved using standard  algorithm.
     Hard-coded thresholds: 
     LinDepThresh=1.00e-15  NormThresh=1.00e-06  ReorthogonThresh=1.00e-02

      Roots     MaxVec    MaxIter   Precond   Conv      Shift    
      1         120       60        1         1.00e-05  0.00e+00  
 ------------------------------------------------------------------------------
      Iter ConvRoots NVecs ResNorm Current eigenvalues (eV)
 ------------------------------------------------------------------------------
      0    0      1     4.33e-02   14.7416   
      1    0      2     4.46e-03   13.5058   
      2    0      3     9.16e-05   13.4349   
      3    1      4     2.56e-06   13.4349*  

     Davidson procedure converged

 EOMEE transition 1/A2
 Total energy = -74.52591850 a.u.  Excitation energy = 13.43489093 eV.
 R0^2 = 0.0000  R1^2 = 0.9449  R2^2 = 0.0551  Res^2 = 2.56e-06
 Conv-d = yes

 Amplitude    Transitions between orbitals
  0.6873564475       1 (B2) A                  ->    2 (B1) A                   
  0.6873564475       1 (B2) B                  ->    2 (B1) B                   
 -0.0927361000       1 (B1) A      1 (B2) B    ->    2 (B1) A      2 (B1) B     
  0.0927361000       1 (B1) A      1 (B2) B    ->    2 (B1) B      2 (B1) A     
 -0.0927361000       1 (B2) A      1 (B1) B    ->    2 (B1) A      2 (B1) B     
  0.0927361000       1 (B2) A      1 (B1) B    ->    2 (B1) B      2 (B1) A     
  0.0927361000       1 (B1) B      1 (B2) A    ->    2 (B1) A      2 (B1) B     
 -0.0927361000       1 (B1) B      1 (B2) A    ->    2 (B1) B      2 (B1) A     
  0.0927361000       1 (B2) B      1 (B1) A    ->    2 (B1) A      2 (B1) B     
 -0.0927361000       1 (B2) B      1 (B1) A    ->    2 (B1) B      2 (B1) A     
  0.0753799271       3 (A1) A      1 (B2) B    ->    4 (A1) A      2 (B1) B     
 -0.0753799271       3 (A1) A      1 (B2) B    ->    2 (B1) B      4 (A1) A     
  0.0753799271       1 (B2) A      3 (A1) B    ->    2 (B1) A      4 (A1) B     
 -0.0753799271       1 (B2) A      3 (A1) B    ->    4 (A1) B      2 (B1) A     
 -0.0753799271       3 (A1) B      1 (B2) A    ->    2 (B1) A      4 (A1) B     
  0.0753799271       3 (A1) B      1 (B2) A    ->    4 (A1) B      2 (B1) A     
 -0.0753799271       1 (B2) B      3 (A1) A    ->    4 (A1) A      2 (B1) B     
  0.0753799271       1 (B2) B      3 (A1) A    ->    2 (B1) B      4 (A1) A     
  0.0706416670       3 (A1) A      1 (B2) B    ->    2 (B1) A      4 (A1) B     
 -0.0706416670       3 (A1) A      1 (B2) B    ->    4 (A1) B      2 (B1) A     
  0.0706416670       1 (B2) A      3 (A1) B    ->    4 (A1) A      2 (B1) B     
 -0.0706416670       1 (B2) A      3 (A1) B    ->    2 (B1) B      4 (A1) A     
 -0.0706416670       3 (A1) B      1 (B2) A    ->    4 (A1) A      2 (B1) B     
  0.0706416670       3 (A1) B      1 (B2) A    ->    2 (B1) B      4 (A1) A     
 -0.0706416670       1 (B2) B      3 (A1) A    ->    2 (B1) A      4 (A1) B     
  0.0706416670       1 (B2) B      3 (A1) A    ->    4 (A1) B      2 (B1) A     
 -0.0684596003       1 (B1) A      1 (B2) B    ->    4 (A1) A      4 (A1) B     
  0.0684596003       1 (B1) A      1 (B2) B    ->    4 (A1) B      4 (A1) A     
 -0.0684596003       1 (B2) A      1 (B1) B    ->    4 (A1) A      4 (A1) B     
  0.0684596003       1 (B2) A      1 (B1) B    ->    4 (A1) B      4 (A1) A     
  0.0684596003       1 (B1) B      1 (B2) A    ->    4 (A1) A      4 (A1) B     
 -0.0684596003       1 (B1) B      1 (B2) A    ->    4 (A1) B      4 (A1) A     
  0.0684596003       1 (B2) B      1 (B1) A    ->    4 (A1) A      4 (A1) B     
 -0.0684596003       1 (B2) B      1 (B1) A    ->    4 (A1) B      4 (A1) A     
  0.0424220636       2 (A1) A      1 (B2) B    ->    2 (B1) A      4 (A1) B     
 -0.0424220636       2 (A1) A      1 (B2) B    ->    4 (A1) B      2 (B1) A     
  0.0424220636       1 (B2) A      2 (A1) B    ->    4 (A1) A      2 (B1) B     
 -0.0424220636       1 (B2) A      2 (A1) B    ->    2 (B1) B      4 (A1) A     
 -0.0424220636       2 (A1) B      1 (B2) A    ->    4 (A1) A      2 (B1) B     
  0.0424220636       2 (A1) B      1 (B2) A    ->    2 (B1) B      4 (A1) A     
 -0.0424220636       1 (B2) B      2 (A1) A    ->    2 (B1) A      4 (A1) B     
  0.0424220636       1 (B2) B      2 (A1) A    ->    4 (A1) B      2 (B1) A     
  0.0419671909       2 (A1) A      1 (B2) B    ->    4 (A1) A      2 (B1) B     
 -0.0419671909       2 (A1) A      1 (B2) B    ->    2 (B1) B      4 (A1) A     
  0.0419671909       1 (B2) A      2 (A1) B    ->    2 (B1) A      4 (A1) B     
 -0.0419671909       1 (B2) A      2 (A1) B    ->    4 (A1) B      2 (B1) A     
 -0.0419671909       2 (A1) B      1 (B2) A    ->    2 (B1) A      4 (A1) B     
  0.0419671909       2 (A1) B      1 (B2) A    ->    4 (A1) B      2 (B1) A     
 -0.0419671909       1 (B2) B      2 (A1) A    ->    4 (A1) A      2 (B1) B     
  0.0419671909       1 (B2) B      2 (A1) A    ->    2 (B1) B      4 (A1) A     
  0.0045574727       3 (A1) A      1 (B2) A    ->    4 (A1) A      2 (B1) A     
 -0.0045574727       3 (A1) A      1 (B2) A    ->    2 (B1) A      4 (A1) A     
 -0.0045574727       1 (B2) A      3 (A1) A    ->    4 (A1) A      2 (B1) A     
  0.0045574727       1 (B2) A      3 (A1) A    ->    2 (B1) A      4 (A1) A     
  0.0045574727       3 (A1) B      1 (B2) B    ->    4 (A1) B      2 (B1) B     
 -0.0045574727       3 (A1) B      1 (B2) B    ->    2 (B1) B      4 (A1) B     
 -0.0045574727       1 (B2) B      3 (A1) B    ->    4 (A1) B      2 (B1) B     
  0.0045574727       1 (B2) B      3 (A1) B    ->    2 (B1) B      4 (A1) B     
 -0.0006223011       2 (A1) A      1 (B2) A    ->    4 (A1) A      2 (B1) A     
  0.0006223011       2 (A1) A      1 (B2) A    ->    2 (B1) A      4 (A1) A     
  0.0006223011       1 (B2) A      2 (A1) A    ->    4 (A1) A      2 (B1) A     
 -0.0006223011       1 (B2) A      2 (A1) A    ->    2 (B1) A      4 (A1) A     
 -0.0006223011       2 (A1) B      1 (B2) B    ->    4 (A1) B      2 (B1) B     
  0.0006223011       2 (A1) B      1 (B2) B    ->    2 (B1) B      4 (A1) B     
  0.0006223011       1 (B2) B      2 (A1) B    ->    4 (A1) B      2 (B1) B     
 -0.0006223011       1 (B2) B      2 (A1) B    ->    2 (B1) B      4 (A1) B     

              Summary of significant orbitals:

               Number  Type             Irrep      Energy
               2       Occ  Alpha       2 (A1)     -1.2478
               4       Occ  Alpha       3 (A1)     -0.4479
               3       Occ  Alpha       1 (B1)     -0.5959
               5       Occ  Alpha       1 (B2)     -0.3890
               2       Occ  Beta        2 (A1)     -1.2478
               4       Occ  Beta        3 (A1)     -0.4479
               3       Occ  Beta        1 (B1)     -0.5959
               5       Occ  Beta        1 (B2)     -0.3890
               6       Vir  Alpha       4 (A1)      0.5642
               7       Vir  Alpha       2 (B1)      0.6930
               6       Vir  Beta        4 (A1)      0.5642
               7       Vir  Beta        2 (B1)      0.6930


 EEs and amplitudes of EOMEE has be exported to fchk file
Running a double precision version
      EOM-CCSD/MP2 left amplitudes will be solved using Davidson.
        Amplitudes will be solved using MOM  algorithm.
     Hard-coded thresholds: 
     LinDepThresh=1.00e-15  NormThresh=1.00e-06  ReorthogonThresh=1.00e-02

      Roots     MaxVec    MaxIter   Precond   Conv      Shift    
      1         120       60        1         1.00e-05  0.00e+00  
 ------------------------------------------------------------------------------
      Iter ConvRoots NVecs ResNorm Current eigenvalues (eV)
 ------------------------------------------------------------------------------
      0    0      1     2.89e-04   13.4349   
      1    0      2     3.71e-05   13.4347   
      2    1      3     6.03e-07   13.4347*  

     Davidson procedure converged

 Excited state properties for  EOMEE-CCSD transition 1/A2
 Dipole moment (a.u.): 0.231803 (X 0.000000, Y 0.000000, Z -0.231803)
 R-squared (a.u.): 19.870669 (XX 9.153085, YY 3.992785, ZZ 6.724798)
 Gauge origin (a.u.): (0.000000, 0.000000, 0.000000)
 Angular momentum (a.u.) against gauge origin: 
 (X 0.000000i, Y 0.000000i, Z 0.000000i)
 Traces of the OPDMs: Tr(AA) 5.000000, Tr(BB) 5.000000

        Solving for EOMEE-CCSD B1 singlet states.

Running a double precision version
        EOMEE-CCSD/MP2 right amplitudes will be solved using Davidson.
        Amplitudes will be solved using standard  algorithm.
     Hard-coded thresholds: 
     LinDepThresh=1.00e-15  NormThresh=1.00e-06  ReorthogonThresh=1.00e-02

      Roots     MaxVec    MaxIter   Precond   Conv      Shift    
      1         120       60        1         1.00e-05  0.00e+00  
 ------------------------------------------------------------------------------
      Iter ConvRoots NVecs ResNorm Current eigenvalues (eV)
 ------------------------------------------------------------------------------
      0    0      1     4.91e-02   19.6876   
      1    0      2     1.42e-02   18.5258   
      2    0      3     2.58e-03   17.9056   
      3    0      4     8.18e-04   17.7981   
      4    0      5     2.00e-05   17.7762   
      5    1      6     8.97e-07   17.7761*  

     Davidson procedure converged

 EOMEE transition 1/B1
 Total energy = -74.36638172 a.u.  Excitation energy = 17.77610756 eV.
 R0^2 = 0.0000  R1^2 = 0.9393  R2^2 = 0.0607  Res^2 = 8.97e-07
 Conv-d = yes

 Amplitude    Transitions between orbitals
 -0.6211496916       3 (A1) A                  ->    2 (B1) A                   
 -0.6211496916       3 (A1) B                  ->    2 (B1) B                   
 -0.2893953794       1 (B1) A                  ->    4 (A1) A                   
 -0.2893953794       1 (B1) B                  ->    4 (A1) B                   
  0.0092332120       2 (A1) A                  ->    2 (B1) A                   
  0.0092332120       2 (A1) B                  ->    2 (B1) B                   
 -0.1278105378       3 (A1) A      3 (A1) B    ->    4 (A1) A      2 (B1) B     
 -0.1278105378       3 (A1) A      3 (A1) B    ->    2 (B1) A      4 (A1) B     
  0.1278105378       3 (A1) A      3 (A1) B    ->    4 (A1) B      2 (B1) A     
  0.1278105378       3 (A1) A      3 (A1) B    ->    2 (B1) B      4 (A1) A     
  0.1278105378       3 (A1) B      3 (A1) A    ->    4 (A1) A      2 (B1) B     
  0.1278105378       3 (A1) B      3 (A1) A    ->    2 (B1) A      4 (A1) B     
 -0.1278105378       3 (A1) B      3 (A1) A    ->    4 (A1) B      2 (B1) A     
 -0.1278105378       3 (A1) B      3 (A1) A    ->    2 (B1) B      4 (A1) A     
  0.0812595696       3 (A1) A      1 (B1) B    ->    4 (A1) A      4 (A1) B     
 -0.0812595696       3 (A1) A      1 (B1) B    ->    4 (A1) B      4 (A1) A     
  0.0812595696       1 (B1) A      3 (A1) B    ->    4 (A1) A      4 (A1) B     
 -0.0812595696       1 (B1) A      3 (A1) B    ->    4 (A1) B      4 (A1) A     
 -0.0812595696       3 (A1) B      1 (B1) A    ->    4 (A1) A      4 (A1) B     
  0.0812595696       3 (A1) B      1 (B1) A    ->    4 (A1) B      4 (A1) A     
 -0.0812595696       1 (B1) B      3 (A1) A    ->    4 (A1) A      4 (A1) B     
  0.0812595696       1 (B1) B      3 (A1) A    ->    4 (A1) B      4 (A1) A     
  0.0603491158       1 (B1) A      1 (B1) B    ->    4 (A1) A      2 (B1) B     
  0.0603491158       1 (B1) A      1 (B1) B    ->    2 (B1) A      4 (A1) B     
 -0.0603491158       1 (B1) A      1 (B1) B    ->    4 (A1) B      2 (B1) A     
 -0.0603491158       1 (B1) A      1 (B1) B    ->    2 (B1) B      4 (A1) A     
 -0.0603491158       1 (B1) B      1 (B1) A    ->    4 (A1) A      2 (B1) B     
 -0.0603491158       1 (B1) B      1 (B1) A    ->    2 (B1) A      4 (A1) B     
  0.0603491158       1 (B1) B      1 (B1) A    ->    4 (A1) B      2 (B1) A     
  0.0603491158       1 (B1) B      1 (B1) A    ->    2 (B1) B      4 (A1) A     
 -0.0463303838       2 (A1) A      1 (B1) B    ->    2 (B1) A      2 (B1) B     
  0.0463303838       2 (A1) A      1 (B1) B    ->    2 (B1) B      2 (B1) A     
 -0.0463303838       1 (B1) A      2 (A1) B    ->    2 (B1) A      2 (B1) B     
  0.0463303838       1 (B1) A      2 (A1) B    ->    2 (B1) B      2 (B1) A     
  0.0463303838       2 (A1) B      1 (B1) A    ->    2 (B1) A      2 (B1) B     
 -0.0463303838       2 (A1) B      1 (B1) A    ->    2 (B1) B      2 (B1) A     
  0.0463303838       1 (B1) B      2 (A1) A    ->    2 (B1) A      2 (B1) B     
 -0.0463303838       1 (B1) B      2 (A1) A    ->    2 (B1) B      2 (B1) A     
 -0.0256743633       2 (A1) A      3 (A1) B    ->    4 (A1) A      2 (B1) B     
 -0.0256743633       3 (A1) A      2 (A1) B    ->    2 (B1) A      4 (A1) B     
  0.0256743633       3 (A1) A      2 (A1) B    ->    4 (A1) B      2 (B1) A     
  0.0256743633       2 (A1) A      3 (A1) B    ->    2 (B1) B      4 (A1) A     
  0.0256743633       3 (A1) B      2 (A1) A    ->    4 (A1) A      2 (B1) B     
  0.0256743633       2 (A1) B      3 (A1) A    ->    2 (B1) A      4 (A1) B     
 -0.0256743633       2 (A1) B      3 (A1) A    ->    4 (A1) B      2 (B1) A     
 -0.0256743633       3 (A1) B      2 (A1) A    ->    2 (B1) B      4 (A1) A     
  0.0153945134       1 (B2) A      1 (B2) B    ->    4 (A1) A      2 (B1) B     
  0.0153945134       1 (B2) A      1 (B2) B    ->    2 (B1) A      4 (A1) B     
 -0.0153945134       1 (B2) A      1 (B2) B    ->    4 (A1) B      2 (B1) A     
 -0.0153945134       1 (B2) A      1 (B2) B    ->    2 (B1) B      4 (A1) A     
 -0.0153945134       1 (B2) B      1 (B2) A    ->    4 (A1) A      2 (B1) B     
 -0.0153945134       1 (B2) B      1 (B2) A    ->    2 (B1) A      4 (A1) B     
  0.0153945134       1 (B2) B      1 (B2) A    ->    4 (A1) B      2 (B1) A     
  0.0153945134       1 (B2) B      1 (B2) A    ->    2 (B1) B      4 (A1) A     
  0.0148245598       3 (A1) A      1 (B1) B    ->    2 (B1) A      2 (B1) B     
 -0.0148245598       3 (A1) A      1 (B1) B    ->    2 (B1) B      2 (B1) A     
  0.0148245598       1 (B1) A      3 (A1) B    ->    2 (B1) A      2 (B1) B     
 -0.0148245598       1 (B1) A      3 (A1) B    ->    2 (B1) B      2 (B1) A     
 -0.0148245598       3 (A1) B      1 (B1) A    ->    2 (B1) A      2 (B1) B     
  0.0148245598       3 (A1) B      1 (B1) A    ->    2 (B1) B      2 (B1) A     
 -0.0148245598       1 (B1) B      3 (A1) A    ->    2 (B1) A      2 (B1) B     
  0.0148245598       1 (B1) B      3 (A1) A    ->    2 (B1) B      2 (B1) A     
 -0.0131666851       3 (A1) A      2 (A1) B    ->    4 (A1) A      2 (B1) B     
 -0.0131666851       2 (A1) A      3 (A1) B    ->    2 (B1) A      4 (A1) B     
  0.0131666851       2 (A1) A      3 (A1) B    ->    4 (A1) B      2 (B1) A     
  0.0131666851       3 (A1) A      2 (A1) B    ->    2 (B1) B      4 (A1) A     
  0.0131666851       2 (A1) B      3 (A1) A    ->    4 (A1) A      2 (B1) B     
  0.0131666851       3 (A1) B      2 (A1) A    ->    2 (B1) A      4 (A1) B     
 -0.0131666851       3 (A1) B      2 (A1) A    ->    4 (A1) B      2 (B1) A     
 -0.0131666851       2 (A1) B      3 (A1) A    ->    2 (B1) B      4 (A1) A     
 -0.0126407650       2 (A1) A      3 (A1) A    ->    4 (A1) A      2 (B1) A     
  0.0126407650       3 (A1) A      2 (A1) A    ->    4 (A1) A      2 (B1) A     
  0.0126407650       2 (A1) A      3 (A1) A    ->    2 (B1) A      4 (A1) A     
 -0.0126407650       3 (A1) A      2 (A1) A    ->    2 (B1) A      4 (A1) A     
 -0.0126407650       2 (A1) B      3 (A1) B    ->    4 (A1) B      2 (B1) B     
  0.0126407650       3 (A1) B      2 (A1) B    ->    4 (A1) B      2 (B1) B     
  0.0126407650       2 (A1) B      3 (A1) B    ->    2 (B1) B      4 (A1) B     
 -0.0126407650       3 (A1) B      2 (A1) B    ->    2 (B1) B      4 (A1) B     
  0.0126036162       2 (A1) A      1 (B1) B    ->    4 (A1) A      4 (A1) B     
 -0.0126036162       2 (A1) A      1 (B1) B    ->    4 (A1) B      4 (A1) A     
  0.0126036162       1 (B1) A      2 (A1) B    ->    4 (A1) A      4 (A1) B     
 -0.0126036162       1 (B1) A      2 (A1) B    ->    4 (A1) B      4 (A1) A     
 -0.0126036162       2 (A1) B      1 (B1) A    ->    4 (A1) A      4 (A1) B     
  0.0126036162       2 (A1) B      1 (B1) A    ->    4 (A1) B      4 (A1) A     
 -0.0126036162       1 (B1) B      2 (A1) A    ->    4 (A1) A      4 (A1) B     
  0.0126036162       1 (B1) B      2 (A1) A    ->    4 (A1) B      4 (A1) A     
  0.0017372846       2 (A1) A      2 (A1) B    ->    4 (A1) A      2 (B1) B     
  0.0017372846       2 (A1) A      2 (A1) B    ->    2 (B1) A      4 (A1) B     
 -0.0017372846       2 (A1) A      2 (A1) B    ->    4 (A1) B      2 (B1) A     
 -0.0017372846       2 (A1) A      2 (A1) B    ->    2 (B1) B      4 (A1) A     
 -0.0017372846       2 (A1) B      2 (A1) A    ->    4 (A1) A      2 (B1) B     
 -0.0017372846       2 (A1) B      2 (A1) A    ->    2 (B1) A      4 (A1) B     
  0.0017372846       2 (A1) B      2 (A1) A    ->    4 (A1) B      2 (B1) A     
  0.0017372846       2 (A1) B      2 (A1) A    ->    2 (B1) B      4 (A1) A     

              Summary of significant orbitals:

               Number  Type             Irrep      Energy
               2       Occ  Alpha       2 (A1)     -1.2478
               4       Occ  Alpha       3 (A1)     -0.4479
               3       Occ  Alpha       1 (B1)     -0.5959
               5       Occ  Alpha       1 (B2)     -0.3890
               2       Occ  Beta        2 (A1)     -1.2478
               4       Occ  Beta        3 (A1)     -0.4479
               3       Occ  Beta        1 (B1)     -0.5959
               5       Occ  Beta        1 (B2)     -0.3890
               6       Vir  Alpha       4 (A1)      0.5642
               7       Vir  Alpha       2 (B1)      0.6930
               6       Vir  Beta        4 (A1)      0.5642
               7       Vir  Beta        2 (B1)      0.6930


 EEs and amplitudes of EOMEE has be exported to fchk file
Running a double precision version
      EOM-CCSD/MP2 left amplitudes will be solved using Davidson.
        Amplitudes will be solved using MOM  algorithm.
     Hard-coded thresholds: 
     LinDepThresh=1.00e-15  NormThresh=1.00e-06  ReorthogonThresh=1.00e-02

      Roots     MaxVec    MaxIter   Precond   Conv      Shift    
      1         120       60        1         1.00e-05  0.00e+00  
 ------------------------------------------------------------------------------
      Iter ConvRoots NVecs ResNorm Current eigenvalues (eV)
 ------------------------------------------------------------------------------
      0    0      1     3.52e-04   17.7761   
      1    0      2     4.15e-05   17.7760   
      2    1      3     2.10e-06   17.7760*  

     Davidson procedure converged

 Excited state properties for  EOMEE-CCSD transition 1/B1
 Dipole moment (a.u.): 0.126192 (X 0.000000, Y 0.000000, Z -0.126192)
 R-squared (a.u.): 19.321540 (XX 8.734179, YY 4.544408, ZZ 6.042953)
 Gauge origin (a.u.): (0.000000, 0.000000, 0.000000)
 Angular momentum (a.u.) against gauge origin: 
 (X 0.000000i, Y 0.000000i, Z 0.000000i)
 Traces of the OPDMs: Tr(AA) 5.000000, Tr(BB) 5.000000

        Solving for EOMEE-CCSD B2 singlet states.

Running a double precision version
        EOMEE-CCSD/MP2 right amplitudes will be solved using Davidson.
        Amplitudes will be solved using standard  algorithm.
     Hard-coded thresholds: 
     LinDepThresh=1.00e-15  NormThresh=1.00e-06  ReorthogonThresh=1.00e-02

      Roots     MaxVec    MaxIter   Precond   Conv      Shift    
      1         120       60        1         1.00e-05  0.00e+00  
 ------------------------------------------------------------------------------
      Iter ConvRoots NVecs ResNorm Current eigenvalues (eV)
 ------------------------------------------------------------------------------
      0    0      1     5.62e-02   12.8193   
      1    0      2     3.70e-03   11.2906   
      2    0      3     9.77e-05   11.2271   
      3    1      4     6.69e-06   11.2276*  

     Davidson procedure converged

 EOMEE transition 1/B2
 Total energy = -74.60703514 a.u.  Excitation energy = 11.22759490 eV.
 R0^2 = 0.0000  R1^2 = 0.9416  R2^2 = 0.0584  Res^2 = 6.69e-06
 Conv-d = yes

 Amplitude    Transitions between orbitals
  0.6861346696       1 (B2) A                  ->    4 (A1) A                   
  0.6861346696       1 (B2) B                  ->    4 (A1) B                   
 -0.1009634400       1 (B1) A      1 (B2) B    ->    2 (B1) A      4 (A1) B     
  0.1009634400       1 (B1) A      1 (B2) B    ->    4 (A1) B      2 (B1) A     
 -0.1009634400       1 (B2) A      1 (B1) B    ->    4 (A1) A      2 (B1) B     
  0.1009634400       1 (B2) A      1 (B1) B    ->    2 (B1) B      4 (A1) A     
  0.1009634400       1 (B1) B      1 (B2) A    ->    4 (A1) A      2 (B1) B     
 -0.1009634400       1 (B1) B      1 (B2) A    ->    2 (B1) B      4 (A1) A     
  0.1009634400       1 (B2) B      1 (B1) A    ->    2 (B1) A      4 (A1) B     
 -0.1009634400       1 (B2) B      1 (B1) A    ->    4 (A1) B      2 (B1) A     
 -0.0811038965       1 (B1) A      1 (B2) B    ->    4 (A1) A      2 (B1) B     
  0.0811038965       1 (B1) A      1 (B2) B    ->    2 (B1) B      4 (A1) A     
 -0.0811038965       1 (B2) A      1 (B1) B    ->    2 (B1) A      4 (A1) B     
  0.0811038965       1 (B2) A      1 (B1) B    ->    4 (A1) B      2 (B1) A     
  0.0811038965       1 (B1) B      1 (B2) A    ->    2 (B1) A      4 (A1) B     
 -0.0811038965       1 (B1) B      1 (B2) A    ->    4 (A1) B      2 (B1) A     
  0.0811038965       1 (B2) B      1 (B1) A    ->    4 (A1) A      2 (B1) B     
 -0.0811038965       1 (B2) B      1 (B1) A    ->    2 (B1) B      4 (A1) A     
  0.0748785229       3 (A1) A      1 (B2) B    ->    4 (A1) A      4 (A1) B     
 -0.0748785229       3 (A1) A      1 (B2) B    ->    4 (A1) B      4 (A1) A     
  0.0748785229       1 (B2) A      3 (A1) B    ->    4 (A1) A      4 (A1) B     
 -0.0748785229       1 (B2) A      3 (A1) B    ->    4 (A1) B      4 (A1) A     
 -0.0748785229       3 (A1) B      1 (B2) A    ->    4 (A1) A      4 (A1) B     
  0.0748785229       3 (A1) B      1 (B2) A    ->    4 (A1) B      4 (A1) A     
 -0.0748785229       1 (B2) B      3 (A1) A    ->    4 (A1) A      4 (A1) B     
  0.0748785229       1 (B2) B      3 (A1) A    ->    4 (A1) B      4 (A1) A     
  0.0596117553       2 (A1) A      1 (B2) B    ->    4 (A1) A      4 (A1) B     
 -0.0596117553       2 (A1) A      1 (B2) B    ->    4 (A1) B      4 (A1) A     
  0.0596117553       1 (B2) A      2 (A1) B    ->    4 (A1) A      4 (A1) B     
 -0.0596117553       1 (B2) A      2 (A1) B    ->    4 (A1) B      4 (A1) A     
 -0.0596117553       2 (A1) B      1 (B2) A    ->    4 (A1) A      4 (A1) B     
  0.0596117553       2 (A1) B      1 (B2) A    ->    4 (A1) B      4 (A1) A     
 -0.0596117553       1 (B2) B      2 (A1) A    ->    4 (A1) A      4 (A1) B     
  0.0596117553       1 (B2) B      2 (A1) A    ->    4 (A1) B      4 (A1) A     
  0.0526749967       3 (A1) A      1 (B2) B    ->    2 (B1) A      2 (B1) B     
 -0.0526749967       3 (A1) A      1 (B2) B    ->    2 (B1) B      2 (B1) A     
  0.0526749967       1 (B2) A      3 (A1) B    ->    2 (B1) A      2 (B1) B     
 -0.0526749967       1 (B2) A      3 (A1) B    ->    2 (B1) B      2 (B1) A     
 -0.0526749967       3 (A1) B      1 (B2) A    ->    2 (B1) A      2 (B1) B     
  0.0526749967       3 (A1) B      1 (B2) A    ->    2 (B1) B      2 (B1) A     
 -0.0526749967       1 (B2) B      3 (A1) A    ->    2 (B1) A      2 (B1) B     
  0.0526749967       1 (B2) B      3 (A1) A    ->    2 (B1) B      2 (B1) A     
  0.0196049904       1 (B1) A      1 (B2) A    ->    4 (A1) A      2 (B1) A     
 -0.0196049904       1 (B1) A      1 (B2) A    ->    2 (B1) A      4 (A1) A     
 -0.0196049904       1 (B2) A      1 (B1) A    ->    4 (A1) A      2 (B1) A     
  0.0196049904       1 (B2) A      1 (B1) A    ->    2 (B1) A      4 (A1) A     
  0.0196049904       1 (B1) B      1 (B2) B    ->    4 (A1) B      2 (B1) B     
 -0.0196049904       1 (B1) B      1 (B2) B    ->    2 (B1) B      4 (A1) B     
 -0.0196049904       1 (B2) B      1 (B1) B    ->    4 (A1) B      2 (B1) B     
  0.0196049904       1 (B2) B      1 (B1) B    ->    2 (B1) B      4 (A1) B     
  0.0113309965       2 (A1) A      1 (B2) B    ->    2 (B1) A      2 (B1) B     
 -0.0113309965       2 (A1) A      1 (B2) B    ->    2 (B1) B      2 (B1) A     
  0.0113309965       1 (B2) A      2 (A1) B    ->    2 (B1) A      2 (B1) B     
 -0.0113309965       1 (B2) A      2 (A1) B    ->    2 (B1) B      2 (B1) A     
 -0.0113309965       2 (A1) B      1 (B2) A    ->    2 (B1) A      2 (B1) B     
  0.0113309965       2 (A1) B      1 (B2) A    ->    2 (B1) B      2 (B1) A     
 -0.0113309965       1 (B2) B      2 (A1) A    ->    2 (B1) A      2 (B1) B     
  0.0113309965       1 (B2) B      2 (A1) A    ->    2 (B1) B      2 (B1) A     

              Summary of significant orbitals:

               Number  Type             Irrep      Energy
               2       Occ  Alpha       2 (A1)     -1.2478
               4       Occ  Alpha       3 (A1)     -0.4479
               3       Occ  Alpha       1 (B1)     -0.5959
               5       Occ  Alpha       1 (B2)     -0.3890
               2       Occ  Beta        2 (A1)     -1.2478
               4       Occ  Beta        3 (A1)     -0.4479
               3       Occ  Beta        1 (B1)     -0.5959
               5       Occ  Beta        1 (B2)     -0.3890
               6       Vir  Alpha       4 (A1)      0.5642
               7       Vir  Alpha       2 (B1)      0.6930
               6       Vir  Beta        4 (A1)      0.5642
               7       Vir  Beta        2 (B1)      0.6930


 EEs and amplitudes of EOMEE has be exported to fchk file
Running a double precision version
      EOM-CCSD/MP2 left amplitudes will be solved using Davidson.
        Amplitudes will be solved using MOM  algorithm.
     Hard-coded thresholds: 
     LinDepThresh=1.00e-15  NormThresh=1.00e-06  ReorthogonThresh=1.00e-02

      Roots     MaxVec    MaxIter   Precond   Conv      Shift    
      1         120       60        1         1.00e-05  0.00e+00  
 ------------------------------------------------------------------------------
      Iter ConvRoots NVecs ResNorm Current eigenvalues (eV)
 ------------------------------------------------------------------------------
      0    0      1     4.46e-04   11.2276   
      1    0      2     1.66e-05   11.2276   
      2    1      3     2.81e-07   11.2275*  

     Davidson procedure converged

 Excited state properties for  EOMEE-CCSD transition 1/B2
 Dipole moment (a.u.): 0.000625 (X 0.000000, Y 0.000000, Z 0.000625)
 R-squared (a.u.): 20.198607 (XX 9.147386, YY 4.130430, ZZ 6.920791)
 Gauge origin (a.u.): (0.000000, 0.000000, 0.000000)
 Angular momentum (a.u.) against gauge origin: 
 (X 0.000000i, Y 0.000000i, Z 0.000000i)
 Traces of the OPDMs: Tr(AA) 5.000000, Tr(BB) 5.000000

        Solving for EOMEE-CCSD A1 triplet states.

Running a double precision version
        EOMEE-CCSD/MP2 right amplitudes will be solved using Davidson.
        Amplitudes will be solved using standard  algorithm.
     Hard-coded thresholds: 
     LinDepThresh=1.00e-15  NormThresh=1.00e-06  ReorthogonThresh=1.00e-02

      Roots     MaxVec    MaxIter   Precond   Conv      Shift    
      1         120       60        1         1.00e-05  0.00e+00  
 ------------------------------------------------------------------------------
      Iter ConvRoots NVecs ResNorm Current eigenvalues (eV)
 ------------------------------------------------------------------------------
      0    0      1     3.53e-02   13.6037   
      1    0      2     5.70e-03   12.7522   
      2    0      3     7.70e-04   12.4892   
      3    0      4     3.16e-05   12.4639   
      4    1      5     2.28e-06   12.4629*  

     Davidson procedure converged

 EOMEE transition 1/A1
 Total energy = -74.56163908 a.u.  Excitation energy = 12.46288463 eV.
 R0^2 = 0.0000  R1^2 = 0.9835  R2^2 = 0.0165  Res^2 = 2.28e-06
 Conv-d = yes

 Amplitude    Transitions between orbitals
  0.6799427095       3 (A1) A                  ->    4 (A1) A                   
 -0.6799427095       3 (A1) B                  ->    4 (A1) B                   
 -0.1609278761       1 (B1) A                  ->    2 (B1) A                   
  0.1609278761       1 (B1) B                  ->    2 (B1) B                   
  0.0593636651       2 (A1) A                  ->    4 (A1) A                   
 -0.0593636651       2 (A1) B                  ->    4 (A1) B                   
 -0.0716937485       3 (A1) A      1 (B1) B    ->    4 (A1) A      2 (B1) B     
  0.0716937485       3 (A1) A      1 (B1) B    ->    2 (B1) B      4 (A1) A     
  0.0716937485       1 (B1) A      3 (A1) B    ->    2 (B1) A      4 (A1) B     
 -0.0716937485       1 (B1) A      3 (A1) B    ->    4 (A1) B      2 (B1) A     
 -0.0716937485       3 (A1) B      1 (B1) A    ->    2 (B1) A      4 (A1) B     
  0.0716937485       3 (A1) B      1 (B1) A    ->    4 (A1) B      2 (B1) A     
  0.0716937485       1 (B1) B      3 (A1) A    ->    4 (A1) A      2 (B1) B     
 -0.0716937485       1 (B1) B      3 (A1) A    ->    2 (B1) B      4 (A1) A     
 -0.0390498651       3 (A1) A      1 (B1) B    ->    2 (B1) A      4 (A1) B     
  0.0390498651       3 (A1) A      1 (B1) B    ->    4 (A1) B      2 (B1) A     
  0.0390498651       1 (B1) A      3 (A1) B    ->    4 (A1) A      2 (B1) B     
 -0.0390498651       1 (B1) A      3 (A1) B    ->    2 (B1) B      4 (A1) A     
 -0.0390498651       3 (A1) B      1 (B1) A    ->    4 (A1) A      2 (B1) B     
  0.0390498651       3 (A1) B      1 (B1) A    ->    2 (B1) B      4 (A1) A     
  0.0390498651       1 (B1) B      3 (A1) A    ->    2 (B1) A      4 (A1) B     
 -0.0390498651       1 (B1) B      3 (A1) A    ->    4 (A1) B      2 (B1) A     
  0.0265396509       2 (A1) A      1 (B1) B    ->    4 (A1) A      2 (B1) B     
 -0.0265396509       2 (A1) A      1 (B1) B    ->    2 (B1) B      4 (A1) A     
 -0.0265396509       1 (B1) A      2 (A1) B    ->    2 (B1) A      4 (A1) B     
  0.0265396509       1 (B1) A      2 (A1) B    ->    4 (A1) B      2 (B1) A     
  0.0265396509       2 (A1) B      1 (B1) A    ->    2 (B1) A      4 (A1) B     
 -0.0265396509       2 (A1) B      1 (B1) A    ->    4 (A1) B      2 (B1) A     
 -0.0265396509       1 (B1) B      2 (A1) A    ->    4 (A1) A      2 (B1) B     
  0.0265396509       1 (B1) B      2 (A1) A    ->    2 (B1) B      4 (A1) A     
 -0.0199866145       3 (A1) A      1 (B1) A    ->    4 (A1) A      2 (B1) A     
  0.0199866145       3 (A1) A      1 (B1) A    ->    2 (B1) A      4 (A1) A     
  0.0199866145       1 (B1) A      3 (A1) A    ->    4 (A1) A      2 (B1) A     
 -0.0199866145       1 (B1) A      3 (A1) A    ->    2 (B1) A      4 (A1) A     
  0.0199866145       3 (A1) B      1 (B1) B    ->    4 (A1) B      2 (B1) B     
 -0.0199866145       3 (A1) B      1 (B1) B    ->    2 (B1) B      4 (A1) B     
 -0.0199866145       1 (B1) B      3 (A1) B    ->    4 (A1) B      2 (B1) B     
  0.0199866145       1 (B1) B      3 (A1) B    ->    2 (B1) B      4 (A1) B     
 -0.0137343507       2 (A1) A      1 (B1) B    ->    2 (B1) A      4 (A1) B     
  0.0137343507       2 (A1) A      1 (B1) B    ->    4 (A1) B      2 (B1) A     
  0.0137343507       1 (B1) A      2 (A1) B    ->    4 (A1) A      2 (B1) B     
 -0.0137343507       1 (B1) A      2 (A1) B    ->    2 (B1) B      4 (A1) A     
 -0.0137343507       2 (A1) B      1 (B1) A    ->    4 (A1) A      2 (B1) B     
  0.0137343507       2 (A1) B      1 (B1) A    ->    2 (B1) B      4 (A1) A     
  0.0137343507       1 (B1) B      2 (A1) A    ->    2 (B1) A      4 (A1) B     
 -0.0137343507       1 (B1) B      2 (A1) A    ->    4 (A1) B      2 (B1) A     
 -0.0130501959       2 (A1) A      3 (A1) B    ->    2 (B1) A      2 (B1) B     
  0.0130501959       3 (A1) A      2 (A1) B    ->    2 (B1) A      2 (B1) B     
  0.0130501959       2 (A1) A      3 (A1) B    ->    2 (B1) B      2 (B1) A     
 -0.0130501959       3 (A1) A      2 (A1) B    ->    2 (B1) B      2 (B1) A     
  0.0130501959       3 (A1) B      2 (A1) A    ->    2 (B1) A      2 (B1) B     
 -0.0130501959       2 (A1) B      3 (A1) A    ->    2 (B1) A      2 (B1) B     
  0.0130501959       2 (A1) B      3 (A1) A    ->    2 (B1) B      2 (B1) A     
 -0.0130501959       3 (A1) B      2 (A1) A    ->    2 (B1) B      2 (B1) A     
  0.0086003202       2 (A1) A      1 (B1) A    ->    4 (A1) A      2 (B1) A     
 -0.0086003202       2 (A1) A      1 (B1) A    ->    2 (B1) A      4 (A1) A     
 -0.0086003202       1 (B1) A      2 (A1) A    ->    4 (A1) A      2 (B1) A     
  0.0086003202       1 (B1) A      2 (A1) A    ->    2 (B1) A      4 (A1) A     
 -0.0086003202       2 (A1) B      1 (B1) B    ->    4 (A1) B      2 (B1) B     
  0.0086003202       2 (A1) B      1 (B1) B    ->    2 (B1) B      4 (A1) B     
  0.0086003202       1 (B1) B      2 (A1) B    ->    4 (A1) B      2 (B1) B     
 -0.0086003202       1 (B1) B      2 (A1) B    ->    2 (B1) B      4 (A1) B     
 -0.0073808423       2 (A1) A      3 (A1) B    ->    4 (A1) A      4 (A1) B     
  0.0073808423       3 (A1) A      2 (A1) B    ->    4 (A1) A      4 (A1) B     
  0.0073808423       2 (A1) A      3 (A1) B    ->    4 (A1) B      4 (A1) A     
 -0.0073808423       3 (A1) A      2 (A1) B    ->    4 (A1) B      4 (A1) A     
  0.0073808423       3 (A1) B      2 (A1) A    ->    4 (A1) A      4 (A1) B     
 -0.0073808423       2 (A1) B      3 (A1) A    ->    4 (A1) A      4 (A1) B     
  0.0073808423       2 (A1) B      3 (A1) A    ->    4 (A1) B      4 (A1) A     
 -0.0073808423       3 (A1) B      2 (A1) A    ->    4 (A1) B      4 (A1) A     

              Summary of significant orbitals:

               Number  Type             Irrep      Energy
               2       Occ  Alpha       2 (A1)     -1.2478
               4       Occ  Alpha       3 (A1)     -0.4479
               3       Occ  Alpha       1 (B1)     -0.5959
               2       Occ  Beta        2 (A1)     -1.2478
               4       Occ  Beta        3 (A1)     -0.4479
               3       Occ  Beta        1 (B1)     -0.5959
               6       Vir  Alpha       4 (A1)      0.5642
               7       Vir  Alpha       2 (B1)      0.6930
               6       Vir  Beta        4 (A1)      0.5642
               7       Vir  Beta        2 (B1)      0.6930


 EEs and amplitudes of EOMEE has be exported to fchk file
Running a double precision version
      EOM-CCSD/MP2 left amplitudes will be solved using Davidson.
        Amplitudes will be solved using MOM  algorithm.
     Hard-coded thresholds: 
     LinDepThresh=1.00e-15  NormThresh=1.00e-06  ReorthogonThresh=1.00e-02

      Roots     MaxVec    MaxIter   Precond   Conv      Shift    
      1         120       60        1         1.00e-05  0.00e+00  
 ------------------------------------------------------------------------------
      Iter ConvRoots NVecs ResNorm Current eigenvalues (eV)
 ------------------------------------------------------------------------------
      0    0      1     1.88e-04   12.4629   
      1    0      2     1.18e-05   12.4628   
      2    1      3     4.38e-07   12.4628*  

     Davidson procedure converged

 Excited state properties for  EOMEE-CCSD transition 1/A1
 Dipole moment (a.u.): 0.052223 (X 0.000000, Y 0.000000, Z 0.052223)
 R-squared (a.u.): 19.882174 (XX 8.986251, YY 4.686036, ZZ 6.209887)
 Gauge origin (a.u.): (0.000000, 0.000000, 0.000000)
 Angular momentum (a.u.) against gauge origin: 
 (X 0.000000i, Y 0.000000i, Z 0.000000i)
 Traces of the OPDMs: Tr(AA) 5.000000, Tr(BB) 5.000000

        Solving for EOMEE-CCSD A2 triplet states.

Running a double precision version
        EOMEE-CCSD/MP2 right amplitudes will be solved using Davidson.
        Amplitudes will be solved using standard  algorithm.
     Hard-coded thresholds: 
     LinDepThresh=1.00e-15  NormThresh=1.00e-06  ReorthogonThresh=1.00e-02

      Roots     MaxVec    MaxIter   Precond   Conv      Shift    
      1         120       60        1         1.00e-05  0.00e+00  
 ------------------------------------------------------------------------------
      Iter ConvRoots NVecs ResNorm Current eigenvalues (eV)
 ------------------------------------------------------------------------------
      0    0      1     3.20e-02   13.3981   
      1    0      2     4.54e-03   12.5554   
      2    0      3     6.41e-05   12.4578   
      3    1      4     3.09e-06   12.4574*  

     Davidson procedure converged

 EOMEE transition 1/A2
 Total energy = -74.56183952 a.u.  Excitation energy = 12.45743019 eV.
 R0^2 = 0.0000  R1^2 = 0.9580  R2^2 = 0.0420  Res^2 = 3.09e-06
 Conv-d = yes

 Amplitude    Transitions between orbitals
 -0.6920859971       1 (B2) A                  ->    2 (B1) A                   
  0.6920859971       1 (B2) B                  ->    2 (B1) B                   
  0.0875632022       3 (A1) A      1 (B2) B    ->    4 (A1) A      2 (B1) B     
 -0.0875632022       3 (A1) A      1 (B2) B    ->    2 (B1) B      4 (A1) A     
 -0.0875632022       1 (B2) A      3 (A1) B    ->    2 (B1) A      4 (A1) B     
  0.0875632022       1 (B2) A      3 (A1) B    ->    4 (A1) B      2 (B1) A     
  0.0875632022       3 (A1) B      1 (B2) A    ->    2 (B1) A      4 (A1) B     
 -0.0875632022       3 (A1) B      1 (B2) A    ->    4 (A1) B      2 (B1) A     
 -0.0875632022       1 (B2) B      3 (A1) A    ->    4 (A1) A      2 (B1) B     
  0.0875632022       1 (B2) B      3 (A1) A    ->    2 (B1) B      4 (A1) A     
 -0.0765897169       1 (B1) A      1 (B2) B    ->    4 (A1) A      4 (A1) B     
  0.0765897169       1 (B1) A      1 (B2) B    ->    4 (A1) B      4 (A1) A     
  0.0765897169       1 (B2) A      1 (B1) B    ->    4 (A1) A      4 (A1) B     
 -0.0765897169       1 (B2) A      1 (B1) B    ->    4 (A1) B      4 (A1) A     
 -0.0765897169       1 (B1) B      1 (B2) A    ->    4 (A1) A      4 (A1) B     
  0.0765897169       1 (B1) B      1 (B2) A    ->    4 (A1) B      4 (A1) A     
  0.0765897169       1 (B2) B      1 (B1) A    ->    4 (A1) A      4 (A1) B     
 -0.0765897169       1 (B2) B      1 (B1) A    ->    4 (A1) B      4 (A1) A     
  0.0541015918       3 (A1) A      1 (B2) B    ->    2 (B1) A      4 (A1) B     
 -0.0541015918       3 (A1) A      1 (B2) B    ->    4 (A1) B      2 (B1) A     
 -0.0541015918       1 (B2) A      3 (A1) B    ->    4 (A1) A      2 (B1) B     
  0.0541015918       1 (B2) A      3 (A1) B    ->    2 (B1) B      4 (A1) A     
  0.0541015918       3 (A1) B      1 (B2) A    ->    4 (A1) A      2 (B1) B     
 -0.0541015918       3 (A1) B      1 (B2) A    ->    2 (B1) B      4 (A1) A     
 -0.0541015918       1 (B2) B      3 (A1) A    ->    2 (B1) A      4 (A1) B     
  0.0541015918       1 (B2) B      3 (A1) A    ->    4 (A1) B      2 (B1) A     
 -0.0473916103       1 (B1) A      1 (B2) B    ->    2 (B1) A      2 (B1) B     
  0.0473916103       1 (B1) A      1 (B2) B    ->    2 (B1) B      2 (B1) A     
  0.0473916103       1 (B2) A      1 (B1) B    ->    2 (B1) A      2 (B1) B     
 -0.0473916103       1 (B2) A      1 (B1) B    ->    2 (B1) B      2 (B1) A     
 -0.0473916103       1 (B1) B      1 (B2) A    ->    2 (B1) A      2 (B1) B     
  0.0473916103       1 (B1) B      1 (B2) A    ->    2 (B1) B      2 (B1) A     
  0.0473916103       1 (B2) B      1 (B1) A    ->    2 (B1) A      2 (B1) B     
 -0.0473916103       1 (B2) B      1 (B1) A    ->    2 (B1) B      2 (B1) A     
  0.0452825757       2 (A1) A      1 (B2) B    ->    4 (A1) A      2 (B1) B     
 -0.0452825757       2 (A1) A      1 (B2) B    ->    2 (B1) B      4 (A1) A     
 -0.0452825757       1 (B2) A      2 (A1) B    ->    2 (B1) A      4 (A1) B     
  0.0452825757       1 (B2) A      2 (A1) B    ->    4 (A1) B      2 (B1) A     
  0.0452825757       2 (A1) B      1 (B2) A    ->    2 (B1) A      4 (A1) B     
 -0.0452825757       2 (A1) B      1 (B2) A    ->    4 (A1) B      2 (B1) A     
 -0.0452825757       1 (B2) B      2 (A1) A    ->    4 (A1) A      2 (B1) B     
  0.0452825757       1 (B2) B      2 (A1) A    ->    2 (B1) B      4 (A1) A     
 -0.0140009089       2 (A1) A      1 (B2) B    ->    2 (B1) A      4 (A1) B     
  0.0140009089       2 (A1) A      1 (B2) B    ->    4 (A1) B      2 (B1) A     
  0.0140009089       1 (B2) A      2 (A1) B    ->    4 (A1) A      2 (B1) B     
 -0.0140009089       1 (B2) A      2 (A1) B    ->    2 (B1) B      4 (A1) A     
 -0.0140009089       2 (A1) B      1 (B2) A    ->    4 (A1) A      2 (B1) B     
  0.0140009089       2 (A1) B      1 (B2) A    ->    2 (B1) B      4 (A1) A     
  0.0140009089       1 (B2) B      2 (A1) A    ->    2 (B1) A      4 (A1) B     
 -0.0140009089       1 (B2) B      2 (A1) A    ->    4 (A1) B      2 (B1) A     
 -0.0080052728       3 (A1) A      1 (B2) A    ->    4 (A1) A      2 (B1) A     
  0.0080052728       3 (A1) A      1 (B2) A    ->    2 (B1) A      4 (A1) A     
  0.0080052728       1 (B2) A      3 (A1) A    ->    4 (A1) A      2 (B1) A     
 -0.0080052728       1 (B2) A      3 (A1) A    ->    2 (B1) A      4 (A1) A     
  0.0080052728       3 (A1) B      1 (B2) B    ->    4 (A1) B      2 (B1) B     
 -0.0080052728       3 (A1) B      1 (B2) B    ->    2 (B1) B      4 (A1) B     
 -0.0080052728       1 (B2) B      3 (A1) B    ->    4 (A1) B      2 (B1) B     
  0.0080052728       1 (B2) B      3 (A1) B    ->    2 (B1) B      4 (A1) B     
 -0.0003241752       2 (A1) A      1 (B2) A    ->    4 (A1) A      2 (B1) A     
  0.0003241752       2 (A1) A      1 (B2) A    ->    2 (B1) A      4 (A1) A     
  0.0003241752       1 (B2) A      2 (A1) A    ->    4 (A1) A      2 (B1) A     
 -0.0003241752       1 (B2) A      2 (A1) A    ->    2 (B1) A      4 (A1) A     
  0.0003241752       2 (A1) B      1 (B2) B    ->    4 (A1) B      2 (B1) B     
 -0.0003241752       2 (A1) B      1 (B2) B    ->    2 (B1) B      4 (A1) B     
 -0.0003241752       1 (B2) B      2 (A1) B    ->    4 (A1) B      2 (B1) B     
  0.0003241752       1 (B2) B      2 (A1) B    ->    2 (B1) B      4 (A1) B     

              Summary of significant orbitals:

               Number  Type             Irrep      Energy
               2       Occ  Alpha       2 (A1)     -1.2478
               4       Occ  Alpha       3 (A1)     -0.4479
               3       Occ  Alpha       1 (B1)     -0.5959
               5       Occ  Alpha       1 (B2)     -0.3890
               2       Occ  Beta        2 (A1)     -1.2478
               4       Occ  Beta        3 (A1)     -0.4479
               3       Occ  Beta        1 (B1)     -0.5959
               5       Occ  Beta        1 (B2)     -0.3890
               6       Vir  Alpha       4 (A1)      0.5642
               7       Vir  Alpha       2 (B1)      0.6930
               6       Vir  Beta        4 (A1)      0.5642
               7       Vir  Beta        2 (B1)      0.6930


 EEs and amplitudes of EOMEE has be exported to fchk file
Running a double precision version
      EOM-CCSD/MP2 left amplitudes will be solved using Davidson.
        Amplitudes will be solved using MOM  algorithm.
     Hard-coded thresholds: 
     LinDepThresh=1.00e-15  NormThresh=1.00e-06  ReorthogonThresh=1.00e-02

      Roots     MaxVec    MaxIter   Precond   Conv      Shift    
      1         120       60        1         1.00e-05  0.00e+00  
 ------------------------------------------------------------------------------
      Iter ConvRoots NVecs ResNorm Current eigenvalues (eV)
 ------------------------------------------------------------------------------
      0    0      1     2.34e-04   12.4574   
      1    0      2     3.11e-05   12.4574   
      2    1      3     6.55e-07   12.4573*  

     Davidson procedure converged

 Excited state properties for  EOMEE-CCSD transition 1/A2
 Dipole moment (a.u.): 0.169579 (X 0.000000, Y 0.000000, Z -0.169579)
 R-squared (a.u.): 20.037588 (XX 9.262824, YY 4.004348, ZZ 6.770416)
 Gauge origin (a.u.): (0.000000, 0.000000, 0.000000)
 Angular momentum (a.u.) against gauge origin: 
 (X 0.000000i, Y 0.000000i, Z 0.000000i)
 Traces of the OPDMs: Tr(AA) 5.000000, Tr(BB) 5.000000

        Solving for EOMEE-CCSD B1 triplet states.

Running a double precision version
        EOMEE-CCSD/MP2 right amplitudes will be solved using Davidson.
        Amplitudes will be solved using standard  algorithm.
     Hard-coded thresholds: 
     LinDepThresh=1.00e-15  NormThresh=1.00e-06  ReorthogonThresh=1.00e-02

      Roots     MaxVec    MaxIter   Precond   Conv      Shift    
      1         120       60        1         1.00e-05  0.00e+00  
 ------------------------------------------------------------------------------
      Iter ConvRoots NVecs ResNorm Current eigenvalues (eV)
 ------------------------------------------------------------------------------
      0    0      1     2.09e-02   15.7355   
      1    0      2     5.13e-03   15.1565   
      2    0      3     5.04e-03   14.6633   
      3    0      4     3.14e-04   14.4848   
      4    0      5     1.35e-05   14.4744   
      5    1      6     1.51e-06   14.4734*  

     Davidson procedure converged

 EOMEE transition 1/B1
 Total energy = -74.48775576 a.u.  Excitation energy = 14.47335187 eV.
 R0^2 = 0.0000  R1^2 = 0.9900  R2^2 = 0.0100  Res^2 = 1.51e-06
 Conv-d = yes

 Amplitude    Transitions between orbitals
  0.6048384012       3 (A1) A                  ->    2 (B1) A                   
 -0.6048384012       3 (A1) B                  ->    2 (B1) B                   
 -0.3585199485       1 (B1) A                  ->    4 (A1) A                   
  0.3585199485       1 (B1) B                  ->    4 (A1) B                   
  0.0251955260       2 (A1) A                  ->    2 (B1) A                   
 -0.0251955260       2 (A1) B                  ->    2 (B1) B                   
 -0.0494060822       3 (A1) A      1 (B1) B    ->    4 (A1) A      4 (A1) B     
  0.0494060822       3 (A1) A      1 (B1) B    ->    4 (A1) B      4 (A1) A     
  0.0494060822       1 (B1) A      3 (A1) B    ->    4 (A1) A      4 (A1) B     
 -0.0494060822       1 (B1) A      3 (A1) B    ->    4 (A1) B      4 (A1) A     
 -0.0494060822       3 (A1) B      1 (B1) A    ->    4 (A1) A      4 (A1) B     
  0.0494060822       3 (A1) B      1 (B1) A    ->    4 (A1) B      4 (A1) A     
  0.0494060822       1 (B1) B      3 (A1) A    ->    4 (A1) A      4 (A1) B     
 -0.0494060822       1 (B1) B      3 (A1) A    ->    4 (A1) B      4 (A1) A     
 -0.0280171844       2 (A1) A      3 (A1) B    ->    4 (A1) A      2 (B1) B     
  0.0280171844       3 (A1) A      2 (A1) B    ->    2 (B1) A      4 (A1) B     
 -0.0280171844       3 (A1) A      2 (A1) B    ->    4 (A1) B      2 (B1) A     
  0.0280171844       2 (A1) A      3 (A1) B    ->    2 (B1) B      4 (A1) A     
  0.0280171844       3 (A1) B      2 (A1) A    ->    4 (A1) A      2 (B1) B     
 -0.0280171844       2 (A1) B      3 (A1) A    ->    2 (B1) A      4 (A1) B     
  0.0280171844       2 (A1) B      3 (A1) A    ->    4 (A1) B      2 (B1) A     
 -0.0280171844       3 (A1) B      2 (A1) A    ->    2 (B1) B      4 (A1) A     
 -0.0247193879       3 (A1) A      3 (A1) B    ->    4 (A1) A      2 (B1) B     
  0.0247193879       3 (A1) A      3 (A1) B    ->    2 (B1) A      4 (A1) B     
 -0.0247193879       3 (A1) A      3 (A1) B    ->    4 (A1) B      2 (B1) A     
  0.0247193879       3 (A1) A      3 (A1) B    ->    2 (B1) B      4 (A1) A     
  0.0247193879       3 (A1) B      3 (A1) A    ->    4 (A1) A      2 (B1) B     
 -0.0247193879       3 (A1) B      3 (A1) A    ->    2 (B1) A      4 (A1) B     
  0.0247193879       3 (A1) B      3 (A1) A    ->    4 (A1) B      2 (B1) A     
 -0.0247193879       3 (A1) B      3 (A1) A    ->    2 (B1) B      4 (A1) A     
  0.0236563224       1 (B1) A      1 (B1) B    ->    4 (A1) A      2 (B1) B     
 -0.0236563224       1 (B1) A      1 (B1) B    ->    2 (B1) A      4 (A1) B     
  0.0236563224       1 (B1) A      1 (B1) B    ->    4 (A1) B      2 (B1) A     
 -0.0236563224       1 (B1) A      1 (B1) B    ->    2 (B1) B      4 (A1) A     
 -0.0236563224       1 (B1) B      1 (B1) A    ->    4 (A1) A      2 (B1) B     
  0.0236563224       1 (B1) B      1 (B1) A    ->    2 (B1) A      4 (A1) B     
 -0.0236563224       1 (B1) B      1 (B1) A    ->    4 (A1) B      2 (B1) A     
  0.0236563224       1 (B1) B      1 (B1) A    ->    2 (B1) B      4 (A1) A     
  0.0195346414       2 (A1) A      1 (B1) B    ->    2 (B1) A      2 (B1) B     
 -0.0195346414       2 (A1) A      1 (B1) B    ->    2 (B1) B      2 (B1) A     
 -0.0195346414       1 (B1) A      2 (A1) B    ->    2 (B1) A      2 (B1) B     
  0.0195346414       1 (B1) A      2 (A1) B    ->    2 (B1) B      2 (B1) A     
  0.0195346414       2 (A1) B      1 (B1) A    ->    2 (B1) A      2 (B1) B     
 -0.0195346414       2 (A1) B      1 (B1) A    ->    2 (B1) B      2 (B1) A     
 -0.0195346414       1 (B1) B      2 (A1) A    ->    2 (B1) A      2 (B1) B     
  0.0195346414       1 (B1) B      2 (A1) A    ->    2 (B1) B      2 (B1) A     
  0.0087679537       1 (B2) A      1 (B2) B    ->    4 (A1) A      2 (B1) B     
 -0.0087679537       1 (B2) A      1 (B2) B    ->    2 (B1) A      4 (A1) B     
  0.0087679537       1 (B2) A      1 (B2) B    ->    4 (A1) B      2 (B1) A     
 -0.0087679537       1 (B2) A      1 (B2) B    ->    2 (B1) B      4 (A1) A     
 -0.0087679537       1 (B2) B      1 (B2) A    ->    4 (A1) A      2 (B1) B     
  0.0087679537       1 (B2) B      1 (B2) A    ->    2 (B1) A      4 (A1) B     
 -0.0087679537       1 (B2) B      1 (B2) A    ->    4 (A1) B      2 (B1) A     
  0.0087679537       1 (B2) B      1 (B2) A    ->    2 (B1) B      4 (A1) A     
  0.0081902851       3 (A1) A      2 (A1) B    ->    4 (A1) A      2 (B1) B     
 -0.0081902851       2 (A1) A      3 (A1) B    ->    2 (B1) A      4 (A1) B     
  0.0081902851       2 (A1) A      3 (A1) B    ->    4 (A1) B      2 (B1) A     
 -0.0081902851       3 (A1) A      2 (A1) B    ->    2 (B1) B      4 (A1) A     
 -0.0081902851       2 (A1) B      3 (A1) A    ->    4 (A1) A      2 (B1) B     
  0.0081902851       3 (A1) B      2 (A1) A    ->    2 (B1) A      4 (A1) B     
 -0.0081902851       3 (A1) B      2 (A1) A    ->    4 (A1) B      2 (B1) A     
  0.0081902851       2 (A1) B      3 (A1) A    ->    2 (B1) B      4 (A1) A     
 -0.0075450181       3 (A1) A      1 (B1) B    ->    2 (B1) A      2 (B1) B     
  0.0075450181       3 (A1) A      1 (B1) B    ->    2 (B1) B      2 (B1) A     
  0.0075450181       1 (B1) A      3 (A1) B    ->    2 (B1) A      2 (B1) B     
 -0.0075450181       1 (B1) A      3 (A1) B    ->    2 (B1) B      2 (B1) A     
 -0.0075450181       3 (A1) B      1 (B1) A    ->    2 (B1) A      2 (B1) B     
  0.0075450181       3 (A1) B      1 (B1) A    ->    2 (B1) B      2 (B1) A     
  0.0075450181       1 (B1) B      3 (A1) A    ->    2 (B1) A      2 (B1) B     
 -0.0075450181       1 (B1) B      3 (A1) A    ->    2 (B1) B      2 (B1) A     
  0.0038185903       2 (A1) A      3 (A1) A    ->    4 (A1) A      2 (B1) A     
 -0.0038185903       3 (A1) A      2 (A1) A    ->    4 (A1) A      2 (B1) A     
 -0.0038185903       2 (A1) A      3 (A1) A    ->    2 (B1) A      4 (A1) A     
  0.0038185903       3 (A1) A      2 (A1) A    ->    2 (B1) A      4 (A1) A     
 -0.0038185903       2 (A1) B      3 (A1) B    ->    4 (A1) B      2 (B1) B     
  0.0038185903       3 (A1) B      2 (A1) B    ->    4 (A1) B      2 (B1) B     
  0.0038185903       2 (A1) B      3 (A1) B    ->    2 (B1) B      4 (A1) B     
 -0.0038185903       3 (A1) B      2 (A1) B    ->    2 (B1) B      4 (A1) B     
 -0.0023275660       2 (A1) A      2 (A1) B    ->    4 (A1) A      2 (B1) B     
  0.0023275660       2 (A1) A      2 (A1) B    ->    2 (B1) A      4 (A1) B     
 -0.0023275660       2 (A1) A      2 (A1) B    ->    4 (A1) B      2 (B1) A     
  0.0023275660       2 (A1) A      2 (A1) B    ->    2 (B1) B      4 (A1) A     
  0.0023275660       2 (A1) B      2 (A1) A    ->    4 (A1) A      2 (B1) B     
 -0.0023275660       2 (A1) B      2 (A1) A    ->    2 (B1) A      4 (A1) B     
  0.0023275660       2 (A1) B      2 (A1) A    ->    4 (A1) B      2 (B1) A     
 -0.0023275660       2 (A1) B      2 (A1) A    ->    2 (B1) B      4 (A1) A     
 -0.0002463492       2 (A1) A      1 (B1) B    ->    4 (A1) A      4 (A1) B     
  0.0002463492       2 (A1) A      1 (B1) B    ->    4 (A1) B      4 (A1) A     
  0.0002463492       1 (B1) A      2 (A1) B    ->    4 (A1) A      4 (A1) B     
 -0.0002463492       1 (B1) A      2 (A1) B    ->    4 (A1) B      4 (A1) A     
 -0.0002463492       2 (A1) B      1 (B1) A    ->    4 (A1) A      4 (A1) B     
  0.0002463492       2 (A1) B      1 (B1) A    ->    4 (A1) B      4 (A1) A     
  0.0002463492       1 (B1) B      2 (A1) A    ->    4 (A1) A      4 (A1) B     
 -0.0002463492       1 (B1) B      2 (A1) A    ->    4 (A1) B      4 (A1) A     

              Summary of significant orbitals:

               Number  Type             Irrep      Energy
               2       Occ  Alpha       2 (A1)     -1.2478
               4       Occ  Alpha       3 (A1)     -0.4479
               3       Occ  Alpha       1 (B1)     -0.5959
               5       Occ  Alpha       1 (B2)     -0.3890
               2       Occ  Beta        2 (A1)     -1.2478
               4       Occ  Beta        3 (A1)     -0.4479
               3       Occ  Beta        1 (B1)     -0.5959
               5       Occ  Beta        1 (B2)     -0.3890
               6       Vir  Alpha       4 (A1)      0.5642
               7       Vir  Alpha       2 (B1)      0.6930
               6       Vir  Beta        4 (A1)      0.5642
               7       Vir  Beta        2 (B1)      0.6930


 EEs and amplitudes of EOMEE has be exported to fchk file
Running a double precision version
      EOM-CCSD/MP2 left amplitudes will be solved using Davidson.
        Amplitudes will be solved using MOM  algorithm.
     Hard-coded thresholds: 
     LinDepThresh=1.00e-15  NormThresh=1.00e-06  ReorthogonThresh=1.00e-02

      Roots     MaxVec    MaxIter   Precond   Conv      Shift    
      1         120       60        1         1.00e-05  0.00e+00  
 ------------------------------------------------------------------------------
      Iter ConvRoots NVecs ResNorm Current eigenvalues (eV)
 ------------------------------------------------------------------------------
      0    0      1     1.12e-04   14.4734   
      1    0      2     2.06e-05   14.4734   
      2    1      3     1.82e-06   14.4732*  

     Davidson procedure converged

 Excited state properties for  EOMEE-CCSD transition 1/B1
 Dipole moment (a.u.): 0.077095 (X 0.000000, Y 0.000000, Z -0.077095)
 R-squared (a.u.): 19.678205 (XX 8.877755, YY 4.590829, ZZ 6.209621)
 Gauge origin (a.u.): (0.000000, 0.000000, 0.000000)
 Angular momentum (a.u.) against gauge origin: 
 (X 0.000000i, Y 0.000000i, Z 0.000000i)
 Traces of the OPDMs: Tr(AA) 5.000000, Tr(BB) 5.000000

        Solving for EOMEE-CCSD B2 triplet states.

Running a double precision version
        EOMEE-CCSD/MP2 right amplitudes will be solved using Davidson.
        Amplitudes will be solved using standard  algorithm.
     Hard-coded thresholds: 
     LinDepThresh=1.00e-15  NormThresh=1.00e-06  ReorthogonThresh=1.00e-02

      Roots     MaxVec    MaxIter   Precond   Conv      Shift    
      1         120       60        1         1.00e-05  0.00e+00  
 ------------------------------------------------------------------------------
      Iter ConvRoots NVecs ResNorm Current eigenvalues (eV)
 ------------------------------------------------------------------------------
      0    0      1     3.73e-02   10.7891   
      1    0      2     6.95e-04   9.7057   
      2    0      3     1.57e-05   9.6964   
      3    1      4     3.05e-07   9.6972*  

     Davidson procedure converged

 EOMEE transition 1/B2
 Total energy = -74.66327768 a.u.  Excitation energy = 9.69715745 eV.
 R0^2 = 0.0000  R1^2 = 0.9596  R2^2 = 0.0404  Res^2 = 3.05e-07
 Conv-d = yes

 Amplitude    Transitions between orbitals
 -0.6926605417       1 (B2) A                  ->    4 (A1) A                   
  0.6926605417       1 (B2) B                  ->    4 (A1) B                   
 -0.1073757420       1 (B1) A      1 (B2) B    ->    2 (B1) A      4 (A1) B     
  0.1073757420       1 (B1) A      1 (B2) B    ->    4 (A1) B      2 (B1) A     
  0.1073757420       1 (B2) A      1 (B1) B    ->    4 (A1) A      2 (B1) B     
 -0.1073757420       1 (B2) A      1 (B1) B    ->    2 (B1) B      4 (A1) A     
 -0.1073757420       1 (B1) B      1 (B2) A    ->    4 (A1) A      2 (B1) B     
  0.1073757420       1 (B1) B      1 (B2) A    ->    2 (B1) B      4 (A1) A     
  0.1073757420       1 (B2) B      1 (B1) A    ->    2 (B1) A      4 (A1) B     
 -0.1073757420       1 (B2) B      1 (B1) A    ->    4 (A1) B      2 (B1) A     
  0.0598558176       3 (A1) A      1 (B2) B    ->    4 (A1) A      4 (A1) B     
 -0.0598558176       3 (A1) A      1 (B2) B    ->    4 (A1) B      4 (A1) A     
 -0.0598558176       1 (B2) A      3 (A1) B    ->    4 (A1) A      4 (A1) B     
  0.0598558176       1 (B2) A      3 (A1) B    ->    4 (A1) B      4 (A1) A     
  0.0598558176       3 (A1) B      1 (B2) A    ->    4 (A1) A      4 (A1) B     
 -0.0598558176       3 (A1) B      1 (B2) A    ->    4 (A1) B      4 (A1) A     
 -0.0598558176       1 (B2) B      3 (A1) A    ->    4 (A1) A      4 (A1) B     
  0.0598558176       1 (B2) B      3 (A1) A    ->    4 (A1) B      4 (A1) A     
  0.0566755117       3 (A1) A      1 (B2) B    ->    2 (B1) A      2 (B1) B     
 -0.0566755117       3 (A1) A      1 (B2) B    ->    2 (B1) B      2 (B1) A     
 -0.0566755117       1 (B2) A      3 (A1) B    ->    2 (B1) A      2 (B1) B     
  0.0566755117       1 (B2) A      3 (A1) B    ->    2 (B1) B      2 (B1) A     
  0.0566755117       3 (A1) B      1 (B2) A    ->    2 (B1) A      2 (B1) B     
 -0.0566755117       3 (A1) B      1 (B2) A    ->    2 (B1) B      2 (B1) A     
 -0.0566755117       1 (B2) B      3 (A1) A    ->    2 (B1) A      2 (B1) B     
  0.0566755117       1 (B2) B      3 (A1) A    ->    2 (B1) B      2 (B1) A     
 -0.0325050707       1 (B1) A      1 (B2) B    ->    4 (A1) A      2 (B1) B     
  0.0325050707       1 (B1) A      1 (B2) B    ->    2 (B1) B      4 (A1) A     
  0.0325050707       1 (B2) A      1 (B1) B    ->    2 (B1) A      4 (A1) B     
 -0.0325050707       1 (B2) A      1 (B1) B    ->    4 (A1) B      2 (B1) A     
 -0.0325050707       1 (B1) B      1 (B2) A    ->    2 (B1) A      4 (A1) B     
  0.0325050707       1 (B1) B      1 (B2) A    ->    4 (A1) B      2 (B1) A     
  0.0325050707       1 (B2) B      1 (B1) A    ->    4 (A1) A      2 (B1) B     
 -0.0325050707       1 (B2) B      1 (B1) A    ->    2 (B1) B      4 (A1) A     
 -0.0259458583       1 (B1) A      1 (B2) A    ->    4 (A1) A      2 (B1) A     
  0.0259458583       1 (B1) A      1 (B2) A    ->    2 (B1) A      4 (A1) A     
  0.0259458583       1 (B2) A      1 (B1) A    ->    4 (A1) A      2 (B1) A     
 -0.0259458583       1 (B2) A      1 (B1) A    ->    2 (B1) A      4 (A1) A     
  0.0259458583       1 (B1) B      1 (B2) B    ->    4 (A1) B      2 (B1) B     
 -0.0259458583       1 (B1) B      1 (B2) B    ->    2 (B1) B      4 (A1) B     
 -0.0259458583       1 (B2) B      1 (B1) B    ->    4 (A1) B      2 (B1) B     
  0.0259458583       1 (B2) B      1 (B1) B    ->    2 (B1) B      4 (A1) B     
  0.0121895424       2 (A1) A      1 (B2) B    ->    2 (B1) A      2 (B1) B     
 -0.0121895424       2 (A1) A      1 (B2) B    ->    2 (B1) B      2 (B1) A     
 -0.0121895424       1 (B2) A      2 (A1) B    ->    2 (B1) A      2 (B1) B     
  0.0121895424       1 (B2) A      2 (A1) B    ->    2 (B1) B      2 (B1) A     
  0.0121895424       2 (A1) B      1 (B2) A    ->    2 (B1) A      2 (B1) B     
 -0.0121895424       2 (A1) B      1 (B2) A    ->    2 (B1) B      2 (B1) A     
 -0.0121895424       1 (B2) B      2 (A1) A    ->    2 (B1) A      2 (B1) B     
  0.0121895424       1 (B2) B      2 (A1) A    ->    2 (B1) B      2 (B1) A     
  0.0043173361       2 (A1) A      1 (B2) B    ->    4 (A1) A      4 (A1) B     
 -0.0043173361       2 (A1) A      1 (B2) B    ->    4 (A1) B      4 (A1) A     
 -0.0043173361       1 (B2) A      2 (A1) B    ->    4 (A1) A      4 (A1) B     
  0.0043173361       1 (B2) A      2 (A1) B    ->    4 (A1) B      4 (A1) A     
  0.0043173361       2 (A1) B      1 (B2) A    ->    4 (A1) A      4 (A1) B     
 -0.0043173361       2 (A1) B      1 (B2) A    ->    4 (A1) B      4 (A1) A     
 -0.0043173361       1 (B2) B      2 (A1) A    ->    4 (A1) A      4 (A1) B     
  0.0043173361       1 (B2) B      2 (A1) A    ->    4 (A1) B      4 (A1) A     

              Summary of significant orbitals:

               Number  Type             Irrep      Energy
               2       Occ  Alpha       2 (A1)     -1.2478
               4       Occ  Alpha       3 (A1)     -0.4479
               3       Occ  Alpha       1 (B1)     -0.5959
               5       Occ  Alpha       1 (B2)     -0.3890
               2       Occ  Beta        2 (A1)     -1.2478
               4       Occ  Beta        3 (A1)     -0.4479
               3       Occ  Beta        1 (B1)     -0.5959
               5       Occ  Beta        1 (B2)     -0.3890
               6       Vir  Alpha       4 (A1)      0.5642
               7       Vir  Alpha       2 (B1)      0.6930
               6       Vir  Beta        4 (A1)      0.5642
               7       Vir  Beta        2 (B1)      0.6930


 EEs and amplitudes of EOMEE has be exported to fchk file
Running a double precision version
      EOM-CCSD/MP2 left amplitudes will be solved using Davidson.
        Amplitudes will be solved using MOM  algorithm.
     Hard-coded thresholds: 
     LinDepThresh=1.00e-15  NormThresh=1.00e-06  ReorthogonThresh=1.00e-02

      Roots     MaxVec    MaxIter   Precond   Conv      Shift    
      1         120       60        1         1.00e-05  0.00e+00  
 ------------------------------------------------------------------------------
      Iter ConvRoots NVecs ResNorm Current eigenvalues (eV)
 ------------------------------------------------------------------------------
      0    0      1     3.35e-04   9.6972   
      1    1      2     7.52e-06   9.6970*  

     Davidson procedure converged

 Excited state properties for  EOMEE-CCSD transition 1/B2
 Dipole moment (a.u.): 0.011605 (X 0.000000, Y 0.000000, Z 0.011605)
 R-squared (a.u.): 20.393560 (XX 9.257456, YY 4.150022, ZZ 6.986083)
 Gauge origin (a.u.): (0.000000, 0.000000, 0.000000)
 Angular momentum (a.u.) against gauge origin: 
 (X 0.000000i, Y 0.000000i, Z 0.000000i)
 Traces of the OPDMs: Tr(AA) 5.000000, Tr(BB) 5.000000

 EOMEE-CCSD calculation:   CPU 8.65 s  wall 2.56 s

 Total ccman2 time:   CPU 12.96 s  wall 3.68 s


 --------------------------------------------------------------
             Orbital Energies (a.u.) and Symmetries
 --------------------------------------------------------------

 Alpha MOs, Restricted
 -- Occupied --                  
-20.247  -1.248  -0.596  -0.448  -0.389
  1 A1    2 A1    1 B1    3 A1    1 B2                                         
 -- Virtual --                   
  0.564   0.693
  4 A1    2 B1                                                                 

 Beta MOs, Restricted
 -- Occupied --                  
-20.247  -1.248  -0.596  -0.448  -0.389
  1 A1    2 A1    1 B1    3 A1    1 B2                                         
 -- Virtual --                   
  0.564   0.693
  4 A1    2 B1                                                                 
 --------------------------------------------------------------

          Ground-State Mulliken Net Atomic Charges

     Atom                 Charge (a.u.)
  ----------------------------------------
      1 O                    -0.295240
      2 H                     0.147620
      3 H                     0.147620
  ----------------------------------------
  Sum of atomic charges =     0.000000

 -----------------------------------------------------------------
                    Cartesian Multipole Moments
 -----------------------------------------------------------------
    Charge (ESU x 10^10)
                 0.0000
    Dipole Moment (Debye)
         X       0.0000      Y      -0.0000      Z      -1.5388
       Tot       1.5388
    Quadrupole Moments (Debye-Ang)
        XX      -4.5033     XY      -0.0000     YY      -6.1460
        XZ      -0.0000     YZ      -0.0000     ZZ      -5.4602
    Octopole Moments (Debye-Ang^2)
       XXX       0.0000    XXY      -0.0000    XYY       0.0000
       YYY      -0.0000    XXZ      -0.4538    XYZ      -0.0000
       YYZ       0.0469    XZZ       0.0000    YZZ      -0.0000
       ZZZ      -0.0040
    Hexadecapole Moments (Debye-Ang^3)
      XXXX      -7.2534   XXXY      -0.0000   XXYY      -1.9096
      XYYY      -0.0000   YYYY      -3.2993   XXXZ      -0.0000
      XXYZ      -0.0000   XYYZ      -0.0000   YYYZ      -0.0000
      XXZZ      -1.8752   XYZZ      -0.0000   YYZZ      -1.4583
      XZZZ      -0.0000   YZZZ      -0.0000   ZZZZ      -5.2356
 -----------------------------------------------------------------
 Total job time:  4.97s(wall), 14.73s(cpu) 
 Mon Sep  5 11:53:39 2022

        *************************************************************
        *                                                           *
        *  Thank you very much for using Q-Chem.  Have a nice day.  *
        *                                                           *
        *************************************************************


