Jobname.Temp
SP        R                             STO-3G              
Number of atoms                            I                3
Charge                                     I                0
Multiplicity                               I                1
Number of electrons                        I               10
Number of alpha electrons                  I                5
Number of beta electrons                   I                5
Atomic numbers                             I   N=           3
           8           1           1
Current cartesian coordinates              R   N=           9
 -1.15722698E-17  1.12026641E-17  1.15692299E-01 -7.47093372E-01 -8.02898866E-17
 -4.62769195E-01  7.47093372E-01 -9.33142626E-18 -4.62769195E-01
Nuclear charges                            R   N=           3
  8.00000000E+00  1.00000000E+00  1.00000000E+00
Number of basis functions                  I                7
Number of contracted shells                I                4
Number of primitive shells                 I               12
Highest angular momentum                   I                1
Largest degree of contraction              I                3
Shell types                                I   N=           4
           0          -1           0           0
Number of primitives per shell             I   N=           4
           3           3           3           3
Shell to atom map                          I   N=           4
           1           1           2           3
Primitive exponents                        R   N=          12
  1.30709320E+02  2.38088610E+01  6.44360830E+00  5.03315130E+00  1.16959610E+00
  3.80389000E-01  3.42525091E+00  6.23913730E-01  1.68855400E-01  3.42525091E+00
  6.23913730E-01  1.68855400E-01
Contraction coefficients                   R   N=          12
  1.54328969E-01  5.35328136E-01  4.44634536E-01 -9.99672287E-02  3.99512825E-01
  7.00115461E-01  1.54328971E-01  5.35328142E-01  4.44634542E-01  1.54328971E-01
  5.35328142E-01  4.44634542E-01
P(S=P) Contraction coefficients            R   N=          12
  0.00000000E+00  0.00000000E+00  0.00000000E+00  1.55916268E-01  6.07683714E-01
  3.91957386E-01  0.00000000E+00  0.00000000E+00  0.00000000E+00  0.00000000E+00
  0.00000000E+00  0.00000000E+00
Coordinates of each shell                  R   N=          12
 -1.15722698E-17  1.12026641E-17  1.15692299E-01 -1.15722698E-17  1.12026641E-17
  1.15692299E-01 -7.47093372E-01 -8.02898866E-17 -4.62769195E-01  7.47093372E-01
 -9.33142626E-18 -4.62769195E-01
Overlap Matrix                             R   N=          28
  1.00000000E+00  2.36703937E-01  1.00000000E+00  1.13799039E-34 -1.41984405E-33
  1.00000000E+00  5.01974597E-34  2.84716779E-33 -3.65632341E-66  1.00000000E+00
 -2.61094231E-18  3.66594843E-17 -4.33980967E-50  8.67961934E-50  1.00000000E+00
  1.50504167E-01  7.94474364E-01 -3.51953546E-01 -4.31018784E-17 -2.72511552E-01
  1.00000000E+00  1.50504167E-01  7.94474364E-01  3.51953546E-01 -9.67355112E-18
 -2.72511552E-01  6.26837740E-01  1.00000000E+00
Core Hamiltonian Matrix                    R   N=          28
 -3.37319631E+01 -7.85197330E+00 -1.00030452E+01  0.00000000E+00  0.00000000E+00
 -8.38111814E+00  0.00000000E+00  0.00000000E+00  0.00000000E+00 -8.00921555E+00
  6.95001959E-02  4.54462849E-01  0.00000000E+00  0.00000000E+00 -8.23217627E+00
 -5.01968382E+00 -7.47923593E+00  2.71212330E+00 -6.55211912E-17  2.35991577E+00
 -7.78577149E+00 -5.01968382E+00 -7.47923593E+00 -2.71212330E+00 -1.47052197E-17
  2.35991577E+00 -5.39485587E+00 -7.78577149E+00
Orbital Coefficients CCMAN2 Alpha          R   N=          49
  9.93174912E-01  4.71932607E-02 -4.86459990E-16  7.28962460E-17 -1.21528519E-02
 -1.54162118E-02 -1.54162118E-02  2.40767343E-01 -8.74204278E-01  1.77168499E-15
 -5.75290958E-17  3.78623707E-01 -4.21257562E-02 -4.21257562E-02  1.04465723E-01
 -4.36584808E-01  7.89043616E-16  2.06604960E-15 -9.07844724E-01  1.42416929E-02
  1.42416929E-02  3.74409744E-16  1.72377723E-16 -7.15900910E-01  2.82367382E-16
 -1.79392068E-15  3.77922833E-01 -3.77922833E-01 -1.92023698E-16  5.90265524E-16
  1.99551111E-16  1.00000000E+00  1.73266498E-15  4.53592574E-17  1.58969720E-16
  1.37616212E-01 -2.48431154E+00  2.90314596E-15 -1.09828289E-16  8.54278561E-01
  1.53159959E+00  1.53159959E+00  2.42861287E-16 -5.66213743E-15 -1.56932947E+00
  8.62847394E-17  1.72084569E-15 -1.96055862E+00  1.96055862E+00
Orbital Coefficients CCMAN2 Beta           R   N=          49
  2.40767343E-01 -8.74204278E-01  1.77168499E-15 -5.75290958E-17  3.78623707E-01
 -4.21257562E-02 -4.21257562E-02  1.04465723E-01 -4.36584808E-01  7.89043616E-16
  2.06604960E-15 -9.07844724E-01  1.42416929E-02  1.42416929E-02  3.74409744E-16
  1.72377723E-16 -7.15900910E-01  2.82367382E-16 -1.79392068E-15  3.77922833E-01
 -3.77922833E-01 -1.92023698E-16  5.90265524E-16  1.99551111E-16  1.00000000E+00
  1.73266498E-15  4.53592574E-17  1.58969720E-16  1.37616212E-01 -2.48431154E+00
  2.90314596E-15 -1.09828289E-16  8.54278561E-01  1.53159959E+00  1.53159959E+00
  2.42861287E-16 -5.66213743E-15 -1.56932947E+00  8.62847394E-17  1.72084569E-15
 -1.96055862E+00  1.96055862E+00  9.93174912E-01  4.71932607E-02 -4.86459990E-16
  7.28962460E-17 -1.21528519E-02 -1.54162118E-02 -1.54162118E-02
EOMEE transition A1 Excitation Energies    R   N=           1
  1.07704040E+00
Number of Active Occ                       I               10
Number of Active Vir                       I                4
Alpha Amplitudes                           R   N=           2
 -7.02254791E-01 -7.02254791E-01
Alpha J Indexes                            I   N=           2
           0           2
Alpha I Indexes                            I   N=           2
           8          30
EOMEE transition A2 Excitation Energies    R   N=           1
  1.43462607E+00
Number of Active Occ                       I               10
Number of Active Vir                       I                4
Alpha Amplitudes                           R   N=           2
  7.04586705E-01  7.04586705E-01
Alpha J Indexes                            I   N=           2
           0           2
Alpha I Indexes                            I   N=           2
          17          39
EOMEE transition B1 Excitation Energies    R   N=           1
  1.44481278E+00
Number of Active Occ                       I               10
Number of Active Vir                       I                4
Alpha Amplitudes                           R   N=           4
 -1.85496982E-01 -6.79699427E-01 -1.85496982E-01 -6.79699427E-01
Alpha J Indexes                            I   N=           2
           0           4
Alpha I Indexes                            I   N=           4
           9          12          31          34
EOMEE transition B2 Excitation Energies    R   N=           1
  1.05135185E+00
Number of Active Occ                       I               10
Number of Active Vir                       I                4
Alpha Amplitudes                           R   N=           2
  7.03098037E-01  7.03098037E-01
Alpha J Indexes                            I   N=           2
           0           2
Alpha I Indexes                            I   N=           2
          16          38
EOMEE transition A1 Excitation Energies    R   N=           1
  1.04941113E+00
Number of Active Occ                       I               10
Number of Active Vir                       I                4
Alpha Amplitudes                           R   N=           2
 -7.02998196E-01  7.02998196E-01
Alpha J Indexes                            I   N=           2
           0           2
Alpha I Indexes                            I   N=           2
           8          30
EOMEE transition A2 Excitation Energies    R   N=           1
  1.39717928E+00
Number of Active Occ                       I               10
Number of Active Vir                       I                4
Alpha Amplitudes                           R   N=           2
  7.04989532E-01 -7.04989532E-01
Alpha J Indexes                            I   N=           2
           0           2
Alpha I Indexes                            I   N=           2
          17          39
EOMEE transition B1 Excitation Energies    R   N=           1
  1.36997973E+00
Number of Active Occ                       I               10
Number of Active Vir                       I                4
Alpha Amplitudes                           R   N=           2
  6.99444489E-01 -6.99444489E-01
Alpha J Indexes                            I   N=           2
           0           2
Alpha I Indexes                            I   N=           2
          12          34
EOMEE transition B2 Excitation Energies    R   N=           1
  9.69155597E-01
Number of Active Occ                       I               10
Number of Active Vir                       I                4
Alpha Amplitudes                           R   N=           2
 -7.05043091E-01  7.05043091E-01
Alpha J Indexes                            I   N=           2
           0           2
Alpha I Indexes                            I   N=           2
          16          38
Number of independent functions            I                7
Alpha MO coefficients                      R   N=          49
  9.93174912E-01  4.71932607E-02 -4.86459990E-16  7.28962460E-17 -1.21528519E-02
 -1.54162118E-02 -1.54162118E-02  2.40767343E-01 -8.74204278E-01  1.77168499E-15
 -5.75290958E-17  3.78623707E-01 -4.21257562E-02 -4.21257562E-02  3.74409744E-16
  1.72377723E-16 -7.15900910E-01  2.82367382E-16 -1.79392068E-15  3.77922833E-01
 -3.77922833E-01  1.04465723E-01 -4.36584808E-01  7.89043616E-16  2.06604960E-15
 -9.07844724E-01  1.42416929E-02  1.42416929E-02 -1.92023698E-16  5.90265524E-16
  1.99551111E-16  1.00000000E+00  1.73266498E-15  4.53592574E-17  1.58969720E-16
  1.37616212E-01 -2.48431154E+00  2.90314596E-15 -1.09828289E-16  8.54278561E-01
  1.53159959E+00  1.53159959E+00  2.42861287E-16 -5.66213743E-15 -1.56932947E+00
  8.62847394E-17  1.72084569E-15 -1.96055862E+00  1.96055862E+00
Alpha Orbital Energies                     R   N=           7
 -2.04790377E+01 -1.69640491E+00 -9.51198227E-01 -5.89038350E-01 -5.52629544E-01
  9.90068800E-01  1.51563744E+00
Total SCF Density                          R   N=          28
  2.11029178E+00 -4.16715707E-01  1.91714924E+00 -4.85668826E-16 -4.04896503E-15
  1.02750846E+00  1.65114297E-16 -5.18652879E-16 -3.89945766E-18  1.99922026E+00
 -3.22371420E-02  1.30370841E-01  2.46636376E-15 -3.29558647E-16  1.93327144E+00
 -4.85101278E-02  5.25127200E-02 -5.29716563E-01  3.67028958E-16 -5.60000838E-02
  3.16370697E-01 -4.85101278E-02  5.25127200E-02  5.29716563E-01  1.66722360E-16
 -5.60000838E-02 -2.93032274E-01  3.16370697E-01
Pure Switching                             I                1
Dipole_Data                                R   N=           3
 -8.45706909E-15  6.92231782E-17 -2.01113187E+00
Quadrupole_Data                            R   N=           6
 -4.68558682E+00  9.90740789E-17 -5.59456207E+00  2.64100438E-15  4.65125833E-16
 -5.18338401E+00
Octapole_Data                              R   N=          10
 -7.47016093E-15 -7.67519560E-17 -1.75342405E-15 -9.14413067E-17 -3.52830838E-01
 -1.47530930E-17 -2.22819964E-01 -2.76780306E-15 -9.88743556E-18 -7.74841769E-01
Hexadecapole_Data                          R   N=          15
 -3.30960552E+00  1.85233704E-17 -1.01426201E+00  1.07186355E-17 -2.67782329E+00
  1.70048006E-15  5.53442782E-17  4.33174931E-16  1.40041215E-16 -9.95464152E-01
  6.86385206E-18 -9.29950812E-01  1.44309686E-15  1.46953827E-16 -2.87307992E+00
