                  Welcome to Q-Chem
     A Quantum Leap Into The Future Of Chemistry


 Q-Chem 5.4 (devel), Q-Chem, Inc., Pleasanton, CA (2021)

 E. Epifanovsky,  A. T. B. Gilbert,  Xintian Feng,  Joonho Lee,  Yuezhi Mao,  
 N. Mardirossian,  P. Pokhilko,  A. White,  M. Wormit,  M. P. Coons,  
 A. L. Dempwolff,  Zhengting Gan,  D. Hait,  P. R. Horn,  L. D. Jacobson,  
 I. Kaliman,  J. Kussmann,  A. W. Lange,  Ka Un Lao,  D. S. Levine,  Jie Liu,  
 S. C. McKenzie,  A. F. Morrison,  K. Nanda,  F. Plasser,  D. R. Rehn,  
 M. L. Vidal,  Zhi-Qiang You,  Ying Zhu,  B. Alam,  B. Albrecht,  
 A. Aldossary,  E. Alguire,  J. H. Andersen,  D. Barton,  K. Begam,  A. Behn,  
 Y. A. Bernard,  E. J. Berquist,  H. Burton,  A. Carreras,  K. Carter-Fenk,  
 R. Chakraborty,  A. D. Chien,  K. D. Closser,  V. Cofer-Shabica,  
 S. Dasgupta,  Jia Deng,  M. de Wergifosse,  M. Diedenhofen,  Hainam Do,  
 S. Ehlert,  Po-Tung Fang,  S. Fatehi,  Qingguo Feng,  T. Friedhoff,  
 J. Gayvert,  Qinghui Ge,  G. Gidofalvi,  M. Goldey,  J. Gomes,  
 C. Gonzalez-Espinoza,  S. Gulania,  A. Gunina,  M. W. D. Hanson-Heine,  
 P. H. P. Harbach,  A. W. Hauser,  M. F. Herbst,  M. Hernandez Vera,  
 M. Hodecker,  Z. C. Holden,  S. Houck,  Xunkun Huang,  Kerwin Hui,  
 B. C. Huynh,  M. Ivanov,  Hyunjun Ji,  Hanjie Jiang,  B. Kaduk,  S. Kaehler,  
 K. Khistyaev,  Jaehoon Kim,  P. Klunzinger,  Z. Koczor-Benda,  
 Joong Hoon Koh,  D. Kosenkov,  L. Koulias,  T. Kowalczyk,  C. M. Krauter,  
 K. Kue,  A. Kunitsa,  T. Kus,  A. Landau,  K. V. Lawler,  D. Lefrancois,  
 S. Lehtola,  Rain Li,  Yi-Pei Li,  Jiashu Liang,  M. Liebenthal,  
 Hung-Hsuan Lin,  You-Sheng Lin,  Fenglai Liu,  Kuan-Yu Liu,  
 M. Loipersberger,  A. Luenser,  A. Manjanath,  P. Manohar,  E. Mansoor,  
 S. F. Manzer,  Shan-Ping Mao,  A. V. Marenich,  T. Markovich,  S. Mason,  
 S. A. Maurer,  P. F. McLaughlin,  M. F. S. J. Menger,  J.-M. Mewes,  
 S. A. Mewes,  P. Morgante,  J. W. Mullinax,  K. J. Oosterbaan,  G. Paran,  
 Alexander C. Paul,  Suranjan K. Paul,  F. Pavosevic,  Zheng Pei,  S. Prager,  
 E. I. Proynov,  E. Ramos,  B. Rana,  A. E. Rask,  A. Rettig,  R. M. Richard,  
 F. Rob,  E. Rossomme,  T. Scheele,  M. Scheurer,  M. Schneider,  
 N. Sergueev,  S. M. Sharada,  W. Skomorowski,  D. W. Small,  C. J. Stein,  
 Yu-Chuan Su,  E. J. Sundstrom,  Zhen Tao,  J. Thirman,  T. Tsuchimochi,  
 N. M. Tubman,  S. P. Veccham,  O. Vydrov,  J. Wenzel,  J. Witte,  A. Yamada,  
 Kun Yao,  S. Yeganeh,  S. R. Yost,  A. Zech,  Igor Ying Zhang,  Xing Zhang,  
 Yu Zhang,  D. Zuev,  A. Aspuru-Guzik,  A. T. Bell,  N. A. Besley,  
 K. B. Bravaya,  B. R. Brooks,  D. Casanova,  Jeng-Da Chai,  S. Coriani,  
 C. J. Cramer,  A. E. DePrince, III,  R. A. DiStasio Jr.,  A. Dreuw,  
 B. D. Dunietz,  T. R. Furlani,  W. A. Goddard III,  S. Grimme,  
 S. Hammes-Schiffer,  T. Head-Gordon,  W. J. Hehre,  Chao-Ping Hsu,  
 T.-C. Jagau,  Yousung Jung,  A. Klamt,  Jing Kong,  D. S. Lambrecht,  
 WanZhen Liang,  N. J. Mayhall,  C. W. McCurdy,  J. B. Neaton,  
 C. Ochsenfeld,  J. A. Parkhill,  R. Peverati,  V. A. Rassolov,  Yihan Shao,  
 L. V. Slipchenko,  T. Stauch,  R. P. Steele,  J. E. Subotnik,  
 A. J. W. Thom,  A. Tkatchenko,  D. G. Truhlar,  T. Van Voorhis,  
 T. A. Wesolowski,  K. B. Whaley,  H. L. Woodcock III,  P. M. Zimmerman,  
 S. Faraji,  P. M. W. Gill,  M. Head-Gordon,  J. M. Herbert,  A. I. Krylov

 Additional authors for Version 5.4.1: 
 S. Kotaru,  Shaozhi Li,  Xiangyuan Li,  F. Matz,  A. Molle,  Haisheng Ren,  
 Yingli Su,  Hung-Yi Tsai,  C. Utku,  Fang Wang

 Contributors to earlier versions of Q-Chem not listed above: 
 R. D. Adamson,  B. Austin,  R. Baer,  J. Baker,  G. J. O. Beran,  
 K. Brandhorst,  S. T. Brown,  E. F. C. Byrd,  A. K. Chakraborty,  
 G. K. L. Chan,  Chun-Min Chang,  Yunqing Chen,  C.-L. Cheng,  
 Siu Hung Chien,  D. M. Chipman,  D. L. Crittenden,  H. Dachsel,  
 R. J. Doerksen,  A. D. Dutoi,  R. G. Edgar,  J. Fosso-Tande,  
 L. Fusti-Molnar,  D. Ghosh,  A. Ghysels,  A. Golubeva-Zadorozhnaya,  
 J. Gonthier,  M. S. Gordon,  S. R. Gwaltney,  G. Hawkins,  J. E. Herr,  
 A. Heyden,  S. Hirata,  E. G. Hohenstein,  G. Kedziora,  F. J. Keil,  
 C. Kelley,  Jihan Kim,  R. A. King,  R. Z. Khaliullin,  P. P. Korambath,  
 W. Kurlancheek,  A. Laurent,  A. M. Lee,  M. S. Lee,  S. V. Levchenko,  
 Ching Yeh Lin,  D. Liotard,  E. Livshits,  R. C. Lochan,  I. Lotan,  
 L. A. Martinez-Martinez,  P. E. Maslen,  N. Nair,  D. P. O'Neill,  
 D. Neuhauser,  E. Neuscamman,  C. M. Oana,  R. Olivares-Amaya,  R. Olson,  
 T. M. Perrine,  B. Peters,  P. A. Pieniazek,  A. Prociuk,  Y. M. Rhee,  
 J. Ritchie,  M. A. Rohrdanz,  E. Rosta,  N. J. Russ,  H. F. Schaefer III,  
 M. W. Schmidt,  N. E. Schultz,  S. Sharma,  N. Shenvi,  C. D. Sherrill,  
 A. C. Simmonett,  A. Sodt,  T. Stein,  D. Stuck,  K. S. Thanthiriwatte,  
 V. Vanovschi,  L. Vogt,  Tao Wang,  A. Warshel,  M. A. Watson,  
 C. F. Williams,  Q. Wu,  X. Xu,  Jun Yang,  W. Zhang,  Yan Zhao

 Please cite Q-Chem as follows:
 Y. Shao et al., Mol. Phys. 113, 184-215 (2015)
 DOI: 10.1080/00268976.2014.952696

 Q-Chem 5.4.1 for Intel X86 EM64T Linux

 Parts of Q-Chem use Armadillo 9.900.5 (Nocturnal Misbehaviour).
 http://arma.sourceforge.net/

 Q-Chem begins on Sun Sep  4 11:48:11 2022  

orc44
 Host: 0

     Scratch files written to /scratch/yongbin/qchem30539//
 Processing $rem in /home/users/yongbin/software/yongbin_quantum/config/preferences:
 Processing $rem in /home/users/yongbin/.qchemrc:

 Checking the input file for inconsistencies... 	...done.

--------------------------------------------------------------
User input:
--------------------------------------------------------------
$comment
Water molecule
$end

$molecule
0 1
O
H O 0.5 
H O 0.5 H 104.5
$end

$rem
   n_frozen_core = 0
   print_qis = true
   BASIS                = sto-3g
!   SYMMETRY             = true
!   CC_SYMMETRY          = false
   METHOD               = eom-ccsd
   EE_SINGLETS          = [1,1,1,1] ! Compute two EOM-EE singlet excited states
   EE_TRIPLETS          = [1,1,1,1] ! Compute two EOM-EE triplet excited states
   CC_REF_PROP          = true ! Compute ground state properties
   CC_EOM_PROP          = true ! Compute excited state properties
!   CC_OSFNO             = true
   GUI                  = 2
$end
--------------------------------------------------------------
 ----------------------------------------------------------------
             Standard Nuclear Orientation (Angstroms)
    I     Atom           X                Y                Z
 ----------------------------------------------------------------
    1      O      -0.0000000000     0.0000000000     0.0612217280
    2      H      -0.3953447869    -0.0000000000    -0.2448869120
    3      H       0.3953447869    -0.0000000000    -0.2448869120
 ----------------------------------------------------------------
 Molecular Point Group                 C2v   NOp =  4
 Largest Abelian Subgroup              C2v   NOp =  4
 Nuclear Repulsion Energy =          17.60293113 hartrees
 There are        5 alpha and        5 beta electrons
 Requested basis set is STO-3G
 There are 4 shells and 7 basis functions
 Total memory of 2000 MB is distributed as follows: 
   MEM_STATIC is set to 192 MB
   QALLOC/CCMAN JOB total memory use is  1808 MB
 Warning: actual memory use might exceed 2000 MB

 Total QAlloc Memory Limit   2000 MB
 Mega-Array Size       188 MB
 MEM_STATIC part       192 MB

                       Distance Matrix (Angstroms)
             O (  1)   H (  2)
   H (  2)  0.500000
   H (  3)  0.500000  0.790690

 A cutoff of  1.0D-14 yielded     10 shell pairs
 There are        34 function pairs
 Smallest overlap matrix eigenvalue = 8.24E-02

 Scale SEOQF with 1.000000e+00/1.000000e+00/1.000000e+00

 Standard Electronic Orientation quadrupole field applied
 Guess from superposition of atomic densities
 Warning:  Energy on first SCF cycle will be non-variational
 SAD guess density has 10.000000 electrons

 -----------------------------------------------------------------------
  General SCF calculation program by
  Eric Jon Sundstrom, Paul Horn, Yuezhi Mao, Dmitri Zuev, Alec White,
  David Stuck, Shaama M.S., Shane Yost, Joonho Lee, David Small,
  Daniel Levine, Susi Lehtola, Hugh Burton, Evgeny Epifanovsky,
  Bang C. Huynh
 -----------------------------------------------------------------------
 Hartree-Fock
 using 20 threads for integral computing
 -------------------------------------------------------
 OpenMP Integral computing Module                
 Release: version 1.0, May 2013, Q-Chem Inc. Pittsburgh 
 -------------------------------------------------------
 A restricted SCF calculation will be
 performed using DIIS
 SCF converges when DIIS error is below 1.0e-08
 ---------------------------------------
  Cycle       Energy         DIIS error
 ---------------------------------------
    1     -75.3209793960      1.22e+00  
    2     -73.1146651010      4.22e-02  
    3     -73.1240397765      5.69e-03  
    4     -73.1242324130      5.28e-04  
    5     -73.1242343623      5.08e-05  
    6     -73.1242343896      6.73e-06  
    7     -73.1242343901      6.17e-09  Convergence criterion met
 ---------------------------------------
 SCF time:   CPU 0.82s  wall 0.00s 
 SCF   energy in the final basis set =      -73.1242343901
 Total energy in the final basis set =      -73.1242343901


 ------------------------------------------------------------------------------

   CCMAN2: suite of methods based on coupled cluster
           and equation of motion theories.

   Components:
   * libvmm-1.3-trunk
     by Evgeny Epifanovsky, Ilya Kaliman.
   * libtensor-2.5-trunk
     by Evgeny Epifanovsky, Michael Wormit, Dmitry Zuev, Sam Manzer, 
        Ilya Kaliman.
   * libcc-2.5-trunk
     by Evgeny Epifanovsky, Arik Landau, Tomasz Kus, Kirill Khistyaev, 
        Dmitry Zuev, Prashant Manohar, Xintian Feng, Anna Krylov, 
        Matthew Goldey, Alec White, Thomas Jagau, Kaushik Nanda, 
        Anastasia Gunina, Alexander Kunitsa, Joonho Lee.

   CCMAN original authors:
   Anna I. Krylov, C. David Sherrill, Steven R. Gwaltney,
   Edward F. C. Byrd (2000)
   Sergey V. Levchenko, Lyudmila V. Slipchenko, Tao Wang,
   Ana-Maria C. Cristian (2003)
   Piotr A. Pieniazek, C. Melania Oana, Evgeny Epifanovsky (2007)
   Prashant Manohar (2009)

 ------------------------------------------------------------------------------


 Allocating and initializing 1808MB of RAM...
 Calculation will run on 20 cores.


 Alpha MOs, Restricted
 -- Occupied --                  
-20.479  -1.696  -0.951  -0.589  -0.553
  1 A1    2 A1    1 B1    3 A1    1 B2                                         
 -- Virtual --                   
  0.990   1.516
  4 A1    2 B1                                                                 

 Beta MOs, Restricted
 -- Occupied --                  
-20.479  -1.696  -0.951  -0.589  -0.553
  1 A1    2 A1    1 B1    3 A1    1 B2                                         
 -- Virtual --                   
  0.990   1.516
  4 A1    2 B1                                                                 

 Occupation and symmetry of molecular orbitals

 Point group: C2v (4 irreducible representations).

                           A1   A2   B1   B2    All 
 ----------------------------------------------------
 All molecular orbitals:
  - Alpha                  4    0    2    1     7   
  - Beta                   4    0    2    1     7   
 ----------------------------------------------------
 Alpha orbitals:
  - Frozen occupied        0    0    0    0     0   
  - Active occupied        3    0    1    1     5   
  - Active virtual         1    0    1    0     2   
  - Frozen virtual         0    0    0    0     0   
 ----------------------------------------------------
 Beta orbitals:
  - Frozen occupied        0    0    0    0     0   
  - Active occupied        3    0    1    1     5   
  - Active virtual         1    0    1    0     2   
  - Frozen virtual         0    0    0    0     0   
 ----------------------------------------------------

 Import integrals:   CPU 0.00 s  wall 0.00 s

 Import integrals:   CPU 0.13 s  wall 0.02 s

 Run QIS:   CPU 0.01 s  wall 0.02 s

 MP2 amplitudes:   CPU 0.02 s  wall 0.02 s

Running a double precision version
           CCSD T amplitudes will be solved using DIIS.

           Start     Size      MaxIter   EConv     TConv     
           3         7         100       1.00e-06  1.00e-04  
 ------------------------------------------------------------------------------
           Energy (a.u.)   Ediff      Tdiff       Comment
 ------------------------------------------------------------------------------
           -73.13518478                           
     1     -73.13712573   1.94e-03   7.79e-02     
     2     -73.13751633   3.91e-04   1.42e-02     
     3     -73.13760041   8.41e-05   3.06e-03     
     4     -73.13762513   2.47e-05   9.07e-04     Switched to DIIS steps.
     5     -73.13762522   8.41e-08   4.26e-05     
 ------------------------------------------------------------------------------
           -73.13762522                           CCSD T converged.

End of double precision
 SCF energy                 = -73.12423439
 MP2 energy                 = -73.13518478
 CCSD correlation energy    =  -0.01339083
 CCSD total energy          = -73.13762522

 CCSD  T1^2 = 0.0000  T2^2 = 0.0035  Leading amplitudes:

 Amplitude    Orbitals with energies
 -0.0017914342       2 (A1) A                  ->    4 (A1) A                   
                    -1.6964                          0.9901                     
 -0.0017914342       2 (A1) B                  ->    4 (A1) B                   
                    -1.6964                          0.9901                     
 -0.0014423885       1 (B1) A                  ->    2 (B1) A                   
                    -0.9512                          1.5156                     
 -0.0014423885       1 (B1) B                  ->    2 (B1) B                   
                    -0.9512                          1.5156                     

 Amplitude    Orbitals with energies
 -0.0340836910       1 (B1) A      1 (B1) B    ->    2 (B1) A      2 (B1) B     
                    -0.9512       -0.9512            1.5156        1.5156       
  0.0340836910       1 (B1) A      1 (B1) B    ->    2 (B1) B      2 (B1) A     
                    -0.9512       -0.9512            1.5156        1.5156       
  0.0340836910       1 (B1) B      1 (B1) A    ->    2 (B1) A      2 (B1) B     
                    -0.9512       -0.9512            1.5156        1.5156       
 -0.0340836910       1 (B1) B      1 (B1) A    ->    2 (B1) B      2 (B1) A     
                    -0.9512       -0.9512            1.5156        1.5156       

 Computing CCSD intermediates for later calculations in double precision
 Finished.

Running a double precision version
           CCSD Lambda amplitudes will be solved using DIIS.
           Start     Size      MaxIter   EConv     LConv     
           3         7         100       1.00e-06  1.00e-04  
 ------------------------------------------------------------------------------
            Enorm      Ldiff       Comment
 ------------------------------------------------------------------------------
     1     3.65e-04   1.98e-04     
     2     7.50e-05   5.34e-05     
     3     1.67e-05   1.30e-05     
     4     9.68e-07   3.91e-06     Switched to DIIS steps.
 ------------------------------------------------------------------------------
                                   CCSD Lambda converged.

 Computing density matrices in double precision...
 Computing density matrices... Done.
 Reference state properties
 Dipole moment (a.u.): 0.791240 (X 0.000000, Y 0.000000, Z -0.791240)
 R-squared (a.u.): 13.148443 (XX 4.599916, YY 4.159420, ZZ 4.389107)
 Gauge origin (a.u.): (0.000000, 0.000000, 0.000000)
 Angular momentum (a.u.) against gauge origin: 
 (X 0.000000i, Y 0.000000i, Z 0.000000i)
 Traces of the OPDMs: Tr(AA) 5.000000, Tr(BB) 5.000000
 Density matrix was written to a file for further analysis.

 CCSD calculation:   CPU 3.29 s  wall 0.68 s

        Solving for EOMEE-CCSD A1 singlet states.

Running a double precision version
        EOMEE-CCSD/MP2 right amplitudes will be solved using Davidson.
        Amplitudes will be solved using standard  algorithm.
     Hard-coded thresholds: 
     LinDepThresh=1.00e-15  NormThresh=1.00e-06  ReorthogonThresh=1.00e-02

      Roots     MaxVec    MaxIter   Precond   Conv      Shift    
      1         120       60        1         1.00e-05  0.00e+00  
 ------------------------------------------------------------------------------
      Iter ConvRoots NVecs ResNorm Current eigenvalues (eV)
 ------------------------------------------------------------------------------
      0    0      1     6.27e-02   30.0941   
      1    0      2     9.27e-02   29.4651   
      2    0      3     4.75e-04   29.3099   
      3    0      4     5.14e-05   29.3078   
      4    1      5     6.02e-06   29.3078*  

     Davidson procedure converged

 EOMEE transition 1/A1
 Total energy = -72.06058482 a.u.  Excitation energy = 29.30775979 eV.
 R0^2 = 0.0000  R1^2 = 0.9867  R2^2 = 0.0133  Res^2 = 6.02e-06
 Conv-d = yes

 Amplitude    Transitions between orbitals
 -0.7022547911       3 (A1) A                  ->    4 (A1) A                   
 -0.7022547911       3 (A1) B                  ->    4 (A1) B                   
 -0.0131784955       1 (B1) A                  ->    2 (B1) A                   
 -0.0131784955       1 (B1) B                  ->    2 (B1) B                   
 -0.0003856975       1 (A1) A                  ->    4 (A1) A                   
 -0.0003856975       1 (A1) B                  ->    4 (A1) B                   
  0.0001675522       2 (A1) A                  ->    4 (A1) A                   
  0.0001675522       2 (A1) B                  ->    4 (A1) B                   
 -0.0578705060       3 (A1) A      1 (B1) B    ->    4 (A1) A      2 (B1) B     
  0.0578705060       3 (A1) A      1 (B1) B    ->    2 (B1) B      4 (A1) A     
 -0.0578705060       1 (B1) A      3 (A1) B    ->    2 (B1) A      4 (A1) B     
  0.0578705060       1 (B1) A      3 (A1) B    ->    4 (A1) B      2 (B1) A     
  0.0578705060       3 (A1) B      1 (B1) A    ->    2 (B1) A      4 (A1) B     
 -0.0578705060       3 (A1) B      1 (B1) A    ->    4 (A1) B      2 (B1) A     
  0.0578705060       1 (B1) B      3 (A1) A    ->    4 (A1) A      2 (B1) B     
 -0.0578705060       1 (B1) B      3 (A1) A    ->    2 (B1) B      4 (A1) A     
 -0.0313676629       3 (A1) A      1 (B1) B    ->    2 (B1) A      4 (A1) B     
  0.0313676629       3 (A1) A      1 (B1) B    ->    4 (A1) B      2 (B1) A     
 -0.0313676629       1 (B1) A      3 (A1) B    ->    4 (A1) A      2 (B1) B     
  0.0313676629       1 (B1) A      3 (A1) B    ->    2 (B1) B      4 (A1) A     
  0.0313676629       3 (A1) B      1 (B1) A    ->    4 (A1) A      2 (B1) B     
 -0.0313676629       3 (A1) B      1 (B1) A    ->    2 (B1) B      4 (A1) A     
  0.0313676629       1 (B1) B      3 (A1) A    ->    2 (B1) A      4 (A1) B     
 -0.0313676629       1 (B1) B      3 (A1) A    ->    4 (A1) B      2 (B1) A     
  0.0265078957       3 (A1) A      3 (A1) B    ->    2 (B1) A      2 (B1) B     
 -0.0265078957       3 (A1) A      3 (A1) B    ->    2 (B1) B      2 (B1) A     
 -0.0265078957       3 (A1) B      3 (A1) A    ->    2 (B1) A      2 (B1) B     
  0.0265078957       3 (A1) B      3 (A1) A    ->    2 (B1) B      2 (B1) A     
 -0.0265043784       3 (A1) A      1 (B1) A    ->    4 (A1) A      2 (B1) A     
  0.0265043784       3 (A1) A      1 (B1) A    ->    2 (B1) A      4 (A1) A     
  0.0265043784       1 (B1) A      3 (A1) A    ->    4 (A1) A      2 (B1) A     
 -0.0265043784       1 (B1) A      3 (A1) A    ->    2 (B1) A      4 (A1) A     
 -0.0265043784       3 (A1) B      1 (B1) B    ->    4 (A1) B      2 (B1) B     
  0.0265043784       3 (A1) B      1 (B1) B    ->    2 (B1) B      4 (A1) B     
  0.0265043784       1 (B1) B      3 (A1) B    ->    4 (A1) B      2 (B1) B     
 -0.0265043784       1 (B1) B      3 (A1) B    ->    2 (B1) B      4 (A1) B     
 -0.0249776249       2 (A1) A      3 (A1) B    ->    4 (A1) A      4 (A1) B     
 -0.0249776249       3 (A1) A      2 (A1) B    ->    4 (A1) A      4 (A1) B     
  0.0249776249       2 (A1) A      3 (A1) B    ->    4 (A1) B      4 (A1) A     
  0.0249776249       3 (A1) A      2 (A1) B    ->    4 (A1) B      4 (A1) A     
  0.0249776249       3 (A1) B      2 (A1) A    ->    4 (A1) A      4 (A1) B     
  0.0249776249       2 (A1) B      3 (A1) A    ->    4 (A1) A      4 (A1) B     
 -0.0249776249       2 (A1) B      3 (A1) A    ->    4 (A1) B      4 (A1) A     
 -0.0249776249       3 (A1) B      2 (A1) A    ->    4 (A1) B      4 (A1) A     
 -0.0234340665       1 (B2) A      1 (B2) B    ->    4 (A1) A      4 (A1) B     
  0.0234340665       1 (B2) A      1 (B2) B    ->    4 (A1) B      4 (A1) A     
  0.0234340665       1 (B2) B      1 (B2) A    ->    4 (A1) A      4 (A1) B     
 -0.0234340665       1 (B2) B      1 (B2) A    ->    4 (A1) B      4 (A1) A     
 -0.0124355442       2 (A1) A      1 (B1) B    ->    4 (A1) A      2 (B1) B     
  0.0124355442       2 (A1) A      1 (B1) B    ->    2 (B1) B      4 (A1) A     
 -0.0124355442       1 (B1) A      2 (A1) B    ->    2 (B1) A      4 (A1) B     
  0.0124355442       1 (B1) A      2 (A1) B    ->    4 (A1) B      2 (B1) A     
  0.0124355442       2 (A1) B      1 (B1) A    ->    2 (B1) A      4 (A1) B     
 -0.0124355442       2 (A1) B      1 (B1) A    ->    4 (A1) B      2 (B1) A     
  0.0124355442       1 (B1) B      2 (A1) A    ->    4 (A1) A      2 (B1) B     
 -0.0124355442       1 (B1) B      2 (A1) A    ->    2 (B1) B      4 (A1) A     
 -0.0098079512       2 (A1) A      3 (A1) B    ->    2 (B1) A      2 (B1) B     
 -0.0098079512       3 (A1) A      2 (A1) B    ->    2 (B1) A      2 (B1) B     
  0.0098079512       2 (A1) A      3 (A1) B    ->    2 (B1) B      2 (B1) A     
  0.0098079512       3 (A1) A      2 (A1) B    ->    2 (B1) B      2 (B1) A     
  0.0098079512       3 (A1) B      2 (A1) A    ->    2 (B1) A      2 (B1) B     
  0.0098079512       2 (A1) B      3 (A1) A    ->    2 (B1) A      2 (B1) B     
 -0.0098079512       2 (A1) B      3 (A1) A    ->    2 (B1) B      2 (B1) A     
 -0.0098079512       3 (A1) B      2 (A1) A    ->    2 (B1) B      2 (B1) A     
  0.0073993019       2 (A1) A      2 (A1) B    ->    4 (A1) A      4 (A1) B     
 -0.0073993019       2 (A1) A      2 (A1) B    ->    4 (A1) B      4 (A1) A     
 -0.0073993019       2 (A1) B      2 (A1) A    ->    4 (A1) A      4 (A1) B     
  0.0073993019       2 (A1) B      2 (A1) A    ->    4 (A1) B      4 (A1) A     
 -0.0067843631       2 (A1) A      1 (B1) A    ->    4 (A1) A      2 (B1) A     
  0.0067843631       2 (A1) A      1 (B1) A    ->    2 (B1) A      4 (A1) A     
  0.0067843631       1 (B1) A      2 (A1) A    ->    4 (A1) A      2 (B1) A     
 -0.0067843631       1 (B1) A      2 (A1) A    ->    2 (B1) A      4 (A1) A     
 -0.0067843631       2 (A1) B      1 (B1) B    ->    4 (A1) B      2 (B1) B     
  0.0067843631       2 (A1) B      1 (B1) B    ->    2 (B1) B      4 (A1) B     
  0.0067843631       1 (B1) B      2 (A1) B    ->    4 (A1) B      2 (B1) B     
 -0.0067843631       1 (B1) B      2 (A1) B    ->    2 (B1) B      4 (A1) B     
 -0.0056495173       2 (A1) A      1 (B1) B    ->    2 (B1) A      4 (A1) B     
  0.0056495173       2 (A1) A      1 (B1) B    ->    4 (A1) B      2 (B1) A     
 -0.0056495173       1 (B1) A      2 (A1) B    ->    4 (A1) A      2 (B1) B     
  0.0056495173       1 (B1) A      2 (A1) B    ->    2 (B1) B      4 (A1) A     
  0.0056495173       2 (A1) B      1 (B1) A    ->    4 (A1) A      2 (B1) B     
 -0.0056495173       2 (A1) B      1 (B1) A    ->    2 (B1) B      4 (A1) A     
  0.0056495173       1 (B1) B      2 (A1) A    ->    2 (B1) A      4 (A1) B     
 -0.0056495173       1 (B1) B      2 (A1) A    ->    4 (A1) B      2 (B1) A     
 -0.0046529645       1 (B1) A      1 (B1) B    ->    4 (A1) A      4 (A1) B     
  0.0046529645       1 (B1) A      1 (B1) B    ->    4 (A1) B      4 (A1) A     
  0.0046529645       1 (B1) B      1 (B1) A    ->    4 (A1) A      4 (A1) B     
 -0.0046529645       1 (B1) B      1 (B1) A    ->    4 (A1) B      4 (A1) A     
  0.0041953498       3 (A1) A      3 (A1) B    ->    4 (A1) A      4 (A1) B     
 -0.0041953498       3 (A1) A      3 (A1) B    ->    4 (A1) B      4 (A1) A     
 -0.0041953498       3 (A1) B      3 (A1) A    ->    4 (A1) A      4 (A1) B     
  0.0041953498       3 (A1) B      3 (A1) A    ->    4 (A1) B      4 (A1) A     
 -0.0016669002       2 (A1) A      2 (A1) B    ->    2 (B1) A      2 (B1) B     
  0.0016669002       2 (A1) A      2 (A1) B    ->    2 (B1) B      2 (B1) A     
  0.0016669002       2 (A1) B      2 (A1) A    ->    2 (B1) A      2 (B1) B     
 -0.0016669002       2 (A1) B      2 (A1) A    ->    2 (B1) B      2 (B1) A     
 -0.0010980951       1 (B1) A      1 (B1) B    ->    2 (B1) A      2 (B1) B     
  0.0010980951       1 (B1) A      1 (B1) B    ->    2 (B1) B      2 (B1) A     
  0.0010980951       1 (B1) B      1 (B1) A    ->    2 (B1) A      2 (B1) B     
 -0.0010980951       1 (B1) B      1 (B1) A    ->    2 (B1) B      2 (B1) A     
 -0.0009324860       1 (A1) A      2 (A1) B    ->    4 (A1) A      4 (A1) B     
 -0.0009324860       2 (A1) A      1 (A1) B    ->    4 (A1) A      4 (A1) B     
  0.0009324860       1 (A1) A      2 (A1) B    ->    4 (A1) B      4 (A1) A     
  0.0009324860       2 (A1) A      1 (A1) B    ->    4 (A1) B      4 (A1) A     
  0.0009324860       2 (A1) B      1 (A1) A    ->    4 (A1) A      4 (A1) B     
  0.0009324860       1 (A1) B      2 (A1) A    ->    4 (A1) A      4 (A1) B     
 -0.0009324860       1 (A1) B      2 (A1) A    ->    4 (A1) B      4 (A1) A     
 -0.0009324860       2 (A1) B      1 (A1) A    ->    4 (A1) B      4 (A1) A     
 -0.0003802447       1 (A1) A      3 (A1) B    ->    4 (A1) A      4 (A1) B     
 -0.0003802447       3 (A1) A      1 (A1) B    ->    4 (A1) A      4 (A1) B     
  0.0003802447       1 (A1) A      3 (A1) B    ->    4 (A1) B      4 (A1) A     
  0.0003802447       3 (A1) A      1 (A1) B    ->    4 (A1) B      4 (A1) A     
  0.0003802447       3 (A1) B      1 (A1) A    ->    4 (A1) A      4 (A1) B     
  0.0003802447       1 (A1) B      3 (A1) A    ->    4 (A1) A      4 (A1) B     
 -0.0003802447       1 (A1) B      3 (A1) A    ->    4 (A1) B      4 (A1) A     
 -0.0003802447       3 (A1) B      1 (A1) A    ->    4 (A1) B      4 (A1) A     
  0.0003609670       1 (A1) A      1 (B1) B    ->    2 (B1) A      4 (A1) B     
 -0.0003609670       1 (A1) A      1 (B1) B    ->    4 (A1) B      2 (B1) A     
  0.0003609670       1 (B1) A      1 (A1) B    ->    4 (A1) A      2 (B1) B     
 -0.0003609670       1 (B1) A      1 (A1) B    ->    2 (B1) B      4 (A1) A     
 -0.0003609670       1 (A1) B      1 (B1) A    ->    4 (A1) A      2 (B1) B     
  0.0003609670       1 (A1) B      1 (B1) A    ->    2 (B1) B      4 (A1) A     
 -0.0003609670       1 (B1) B      1 (A1) A    ->    2 (B1) A      4 (A1) B     
  0.0003609670       1 (B1) B      1 (A1) A    ->    4 (A1) B      2 (B1) A     
 -0.0003283145       1 (A1) A      3 (A1) B    ->    2 (B1) A      2 (B1) B     
 -0.0003283145       3 (A1) A      1 (A1) B    ->    2 (B1) A      2 (B1) B     
  0.0003283145       1 (A1) A      3 (A1) B    ->    2 (B1) B      2 (B1) A     
  0.0003283145       3 (A1) A      1 (A1) B    ->    2 (B1) B      2 (B1) A     
  0.0003283145       3 (A1) B      1 (A1) A    ->    2 (B1) A      2 (B1) B     
  0.0003283145       1 (A1) B      3 (A1) A    ->    2 (B1) A      2 (B1) B     
 -0.0003283145       1 (A1) B      3 (A1) A    ->    2 (B1) B      2 (B1) A     
 -0.0003283145       3 (A1) B      1 (A1) A    ->    2 (B1) B      2 (B1) A     
  0.0003204162       1 (B2) A      1 (B2) B    ->    2 (B1) A      2 (B1) B     
 -0.0003204162       1 (B2) A      1 (B2) B    ->    2 (B1) B      2 (B1) A     
 -0.0003204162       1 (B2) B      1 (B2) A    ->    2 (B1) A      2 (B1) B     
  0.0003204162       1 (B2) B      1 (B2) A    ->    2 (B1) B      2 (B1) A     
  0.0002393525       1 (A1) A      1 (B1) B    ->    4 (A1) A      2 (B1) B     
 -0.0002393525       1 (A1) A      1 (B1) B    ->    2 (B1) B      4 (A1) A     
  0.0002393525       1 (B1) A      1 (A1) B    ->    2 (B1) A      4 (A1) B     
 -0.0002393525       1 (B1) A      1 (A1) B    ->    4 (A1) B      2 (B1) A     
 -0.0002393525       1 (A1) B      1 (B1) A    ->    2 (B1) A      4 (A1) B     
  0.0002393525       1 (A1) B      1 (B1) A    ->    4 (A1) B      2 (B1) A     
 -0.0002393525       1 (B1) B      1 (A1) A    ->    4 (A1) A      2 (B1) B     
  0.0002393525       1 (B1) B      1 (A1) A    ->    2 (B1) B      4 (A1) A     
 -0.0001215704       1 (A1) A      1 (B1) A    ->    4 (A1) A      2 (B1) A     
  0.0001215704       1 (A1) A      1 (B1) A    ->    2 (B1) A      4 (A1) A     
  0.0001215704       1 (B1) A      1 (A1) A    ->    4 (A1) A      2 (B1) A     
 -0.0001215704       1 (B1) A      1 (A1) A    ->    2 (B1) A      4 (A1) A     
 -0.0001215704       1 (A1) B      1 (B1) B    ->    4 (A1) B      2 (B1) B     
  0.0001215704       1 (A1) B      1 (B1) B    ->    2 (B1) B      4 (A1) B     
  0.0001215704       1 (B1) B      1 (A1) B    ->    4 (A1) B      2 (B1) B     
 -0.0001215704       1 (B1) B      1 (A1) B    ->    2 (B1) B      4 (A1) B     
  0.0000663875       1 (A1) A      2 (A1) B    ->    2 (B1) A      2 (B1) B     
  0.0000663875       2 (A1) A      1 (A1) B    ->    2 (B1) A      2 (B1) B     
 -0.0000663875       1 (A1) A      2 (A1) B    ->    2 (B1) B      2 (B1) A     
 -0.0000663875       2 (A1) A      1 (A1) B    ->    2 (B1) B      2 (B1) A     
 -0.0000663875       2 (A1) B      1 (A1) A    ->    2 (B1) A      2 (B1) B     
 -0.0000663875       1 (A1) B      2 (A1) A    ->    2 (B1) A      2 (B1) B     
  0.0000663875       1 (A1) B      2 (A1) A    ->    2 (B1) B      2 (B1) A     
  0.0000663875       2 (A1) B      1 (A1) A    ->    2 (B1) B      2 (B1) A     
 -0.0000505020       1 (A1) A      1 (A1) B    ->    4 (A1) A      4 (A1) B     
  0.0000505020       1 (A1) A      1 (A1) B    ->    4 (A1) B      4 (A1) A     
  0.0000505020       1 (A1) B      1 (A1) A    ->    4 (A1) A      4 (A1) B     
 -0.0000505020       1 (A1) B      1 (A1) A    ->    4 (A1) B      4 (A1) A     
 -0.0000168376       1 (A1) A      1 (A1) B    ->    2 (B1) A      2 (B1) B     
  0.0000168376       1 (A1) A      1 (A1) B    ->    2 (B1) B      2 (B1) A     
  0.0000168376       1 (A1) B      1 (A1) A    ->    2 (B1) A      2 (B1) B     
 -0.0000168376       1 (A1) B      1 (A1) A    ->    2 (B1) B      2 (B1) A     

              Summary of significant orbitals:

               Number  Type             Irrep      Energy
               1       Occ  Alpha       1 (A1)    -20.4790
               2       Occ  Alpha       2 (A1)     -1.6964
               4       Occ  Alpha       3 (A1)     -0.5890
               3       Occ  Alpha       1 (B1)     -0.9512
               5       Occ  Alpha       1 (B2)     -0.5526
               1       Occ  Beta        1 (A1)    -20.4790
               2       Occ  Beta        2 (A1)     -1.6964
               4       Occ  Beta        3 (A1)     -0.5890
               3       Occ  Beta        1 (B1)     -0.9512
               5       Occ  Beta        1 (B2)     -0.5526
               6       Vir  Alpha       4 (A1)      0.9901
               7       Vir  Alpha       2 (B1)      1.5156
               6       Vir  Beta        4 (A1)      0.9901
               7       Vir  Beta        2 (B1)      1.5156


 EEs and amplitudes of EOMEE has be exported to fchk file
Running a double precision version
      EOM-CCSD/MP2 left amplitudes will be solved using Davidson.
        Amplitudes will be solved using MOM  algorithm.
     Hard-coded thresholds: 
     LinDepThresh=1.00e-15  NormThresh=1.00e-06  ReorthogonThresh=1.00e-02

      Roots     MaxVec    MaxIter   Precond   Conv      Shift    
      1         120       60        1         1.00e-05  0.00e+00  
 ------------------------------------------------------------------------------
      Iter ConvRoots NVecs ResNorm Current eigenvalues (eV)
 ------------------------------------------------------------------------------
      0    0      1     5.94e-05   29.3078   
      1    0      2     2.30e-04   29.3077   
      2    1      3     1.09e-06   29.3078*  

     Davidson procedure converged

 Excited state properties for  EOMEE-CCSD transition 1/A1
 Dipole moment (a.u.): 0.411627 (X 0.000000, Y 0.000000, Z 0.411627)
 R-squared (a.u.): 16.412775 (XX 6.314739, YY 4.966576, ZZ 5.131460)
 Gauge origin (a.u.): (0.000000, 0.000000, 0.000000)
 Angular momentum (a.u.) against gauge origin: 
 (X 0.000000i, Y 0.000000i, Z 0.000000i)
 Traces of the OPDMs: Tr(AA) 5.000000, Tr(BB) 5.000000

        Solving for EOMEE-CCSD A2 singlet states.

Running a double precision version
        EOMEE-CCSD/MP2 right amplitudes will be solved using Davidson.
        Amplitudes will be solved using standard  algorithm.
     Hard-coded thresholds: 
     LinDepThresh=1.00e-15  NormThresh=1.00e-06  ReorthogonThresh=1.00e-02

      Roots     MaxVec    MaxIter   Precond   Conv      Shift    
      1         120       60        1         1.00e-05  0.00e+00  
 ------------------------------------------------------------------------------
      Iter ConvRoots NVecs ResNorm Current eigenvalues (eV)
 ------------------------------------------------------------------------------
      0    0      1     2.67e-02   39.3936   
      1    0      2     9.55e-03   39.0668   
      2    0      3     6.03e-04   39.0403   
      3    1      4     5.09e-06   39.0382*  

     Davidson procedure converged

 EOMEE transition 1/A2
 Total energy = -71.70299914 a.u.  Excitation energy = 39.03816083 eV.
 R0^2 = 0.0000  R1^2 = 0.9929  R2^2 = 0.0071  Res^2 = 5.09e-06
 Conv-d = yes

 Amplitude    Transitions between orbitals
  0.7045867047       1 (B2) A                  ->    2 (B1) A                   
  0.7045867047       1 (B2) B                  ->    2 (B1) B                   
  0.0317667370       2 (A1) A      1 (B2) B    ->    2 (B1) A      4 (A1) B     
 -0.0317667370       2 (A1) A      1 (B2) B    ->    4 (A1) B      2 (B1) A     
  0.0317667370       1 (B2) A      2 (A1) B    ->    4 (A1) A      2 (B1) B     
 -0.0317667370       1 (B2) A      2 (A1) B    ->    2 (B1) B      4 (A1) A     
 -0.0317667370       2 (A1) B      1 (B2) A    ->    4 (A1) A      2 (B1) B     
  0.0317667370       2 (A1) B      1 (B2) A    ->    2 (B1) B      4 (A1) A     
 -0.0317667370       1 (B2) B      2 (A1) A    ->    2 (B1) A      4 (A1) B     
  0.0317667370       1 (B2) B      2 (A1) A    ->    4 (A1) B      2 (B1) A     
  0.0293358650       1 (B1) A      1 (B2) B    ->    2 (B1) A      2 (B1) B     
 -0.0293358650       1 (B1) A      1 (B2) B    ->    2 (B1) B      2 (B1) A     
  0.0293358650       1 (B2) A      1 (B1) B    ->    2 (B1) A      2 (B1) B     
 -0.0293358650       1 (B2) A      1 (B1) B    ->    2 (B1) B      2 (B1) A     
 -0.0293358650       1 (B1) B      1 (B2) A    ->    2 (B1) A      2 (B1) B     
  0.0293358650       1 (B1) B      1 (B2) A    ->    2 (B1) B      2 (B1) A     
 -0.0293358650       1 (B2) B      1 (B1) A    ->    2 (B1) A      2 (B1) B     
  0.0293358650       1 (B2) B      1 (B1) A    ->    2 (B1) B      2 (B1) A     
  0.0266702871       1 (B1) A      1 (B2) B    ->    4 (A1) A      4 (A1) B     
 -0.0266702871       1 (B1) A      1 (B2) B    ->    4 (A1) B      4 (A1) A     
  0.0266702871       1 (B2) A      1 (B1) B    ->    4 (A1) A      4 (A1) B     
 -0.0266702871       1 (B2) A      1 (B1) B    ->    4 (A1) B      4 (A1) A     
 -0.0266702871       1 (B1) B      1 (B2) A    ->    4 (A1) A      4 (A1) B     
  0.0266702871       1 (B1) B      1 (B2) A    ->    4 (A1) B      4 (A1) A     
 -0.0266702871       1 (B2) B      1 (B1) A    ->    4 (A1) A      4 (A1) B     
  0.0266702871       1 (B2) B      1 (B1) A    ->    4 (A1) B      4 (A1) A     
  0.0262756005       2 (A1) A      1 (B2) B    ->    4 (A1) A      2 (B1) B     
 -0.0262756005       2 (A1) A      1 (B2) B    ->    2 (B1) B      4 (A1) A     
  0.0262756005       1 (B2) A      2 (A1) B    ->    2 (B1) A      4 (A1) B     
 -0.0262756005       1 (B2) A      2 (A1) B    ->    4 (A1) B      2 (B1) A     
 -0.0262756005       2 (A1) B      1 (B2) A    ->    2 (B1) A      4 (A1) B     
  0.0262756005       2 (A1) B      1 (B2) A    ->    4 (A1) B      2 (B1) A     
 -0.0262756005       1 (B2) B      2 (A1) A    ->    4 (A1) A      2 (B1) B     
  0.0262756005       1 (B2) B      2 (A1) A    ->    2 (B1) B      4 (A1) A     
 -0.0130067767       3 (A1) A      1 (B2) B    ->    2 (B1) A      4 (A1) B     
  0.0130067767       3 (A1) A      1 (B2) B    ->    4 (A1) B      2 (B1) A     
 -0.0130067767       1 (B2) A      3 (A1) B    ->    4 (A1) A      2 (B1) B     
  0.0130067767       1 (B2) A      3 (A1) B    ->    2 (B1) B      4 (A1) A     
  0.0130067767       3 (A1) B      1 (B2) A    ->    4 (A1) A      2 (B1) B     
 -0.0130067767       3 (A1) B      1 (B2) A    ->    2 (B1) B      4 (A1) A     
  0.0130067767       1 (B2) B      3 (A1) A    ->    2 (B1) A      4 (A1) B     
 -0.0130067767       1 (B2) B      3 (A1) A    ->    4 (A1) B      2 (B1) A     
 -0.0073812262       3 (A1) A      1 (B2) B    ->    4 (A1) A      2 (B1) B     
  0.0073812262       3 (A1) A      1 (B2) B    ->    2 (B1) B      4 (A1) A     
 -0.0073812262       1 (B2) A      3 (A1) B    ->    2 (B1) A      4 (A1) B     
  0.0073812262       1 (B2) A      3 (A1) B    ->    4 (A1) B      2 (B1) A     
  0.0073812262       3 (A1) B      1 (B2) A    ->    2 (B1) A      4 (A1) B     
 -0.0073812262       3 (A1) B      1 (B2) A    ->    4 (A1) B      2 (B1) A     
  0.0073812262       1 (B2) B      3 (A1) A    ->    4 (A1) A      2 (B1) B     
 -0.0073812262       1 (B2) B      3 (A1) A    ->    2 (B1) B      4 (A1) A     
  0.0056659596       3 (A1) A      1 (B2) A    ->    4 (A1) A      2 (B1) A     
 -0.0056659596       3 (A1) A      1 (B2) A    ->    2 (B1) A      4 (A1) A     
 -0.0056659596       1 (B2) A      3 (A1) A    ->    4 (A1) A      2 (B1) A     
  0.0056659596       1 (B2) A      3 (A1) A    ->    2 (B1) A      4 (A1) A     
  0.0056659596       3 (A1) B      1 (B2) B    ->    4 (A1) B      2 (B1) B     
 -0.0056659596       3 (A1) B      1 (B2) B    ->    2 (B1) B      4 (A1) B     
 -0.0056659596       1 (B2) B      3 (A1) B    ->    4 (A1) B      2 (B1) B     
  0.0056659596       1 (B2) B      3 (A1) B    ->    2 (B1) B      4 (A1) B     
 -0.0054996672       2 (A1) A      1 (B2) A    ->    4 (A1) A      2 (B1) A     
  0.0054996672       2 (A1) A      1 (B2) A    ->    2 (B1) A      4 (A1) A     
  0.0054996672       1 (B2) A      2 (A1) A    ->    4 (A1) A      2 (B1) A     
 -0.0054996672       1 (B2) A      2 (A1) A    ->    2 (B1) A      4 (A1) A     
 -0.0054996672       2 (A1) B      1 (B2) B    ->    4 (A1) B      2 (B1) B     
  0.0054996672       2 (A1) B      1 (B2) B    ->    2 (B1) B      4 (A1) B     
  0.0054996672       1 (B2) B      2 (A1) B    ->    4 (A1) B      2 (B1) B     
 -0.0054996672       1 (B2) B      2 (A1) B    ->    2 (B1) B      4 (A1) B     
 -0.0002907248       1 (A1) A      1 (B2) B    ->    2 (B1) A      4 (A1) B     
  0.0002907248       1 (A1) A      1 (B2) B    ->    4 (A1) B      2 (B1) A     
 -0.0002907248       1 (B2) A      1 (A1) B    ->    4 (A1) A      2 (B1) B     
  0.0002907248       1 (B2) A      1 (A1) B    ->    2 (B1) B      4 (A1) A     
  0.0002907248       1 (A1) B      1 (B2) A    ->    4 (A1) A      2 (B1) B     
 -0.0002907248       1 (A1) B      1 (B2) A    ->    2 (B1) B      4 (A1) A     
  0.0002907248       1 (B2) B      1 (A1) A    ->    2 (B1) A      4 (A1) B     
 -0.0002907248       1 (B2) B      1 (A1) A    ->    4 (A1) B      2 (B1) A     
 -0.0002173421       1 (A1) A      1 (B2) B    ->    4 (A1) A      2 (B1) B     
  0.0002173421       1 (A1) A      1 (B2) B    ->    2 (B1) B      4 (A1) A     
 -0.0002173421       1 (B2) A      1 (A1) B    ->    2 (B1) A      4 (A1) B     
  0.0002173421       1 (B2) A      1 (A1) B    ->    4 (A1) B      2 (B1) A     
  0.0002173421       1 (A1) B      1 (B2) A    ->    2 (B1) A      4 (A1) B     
 -0.0002173421       1 (A1) B      1 (B2) A    ->    4 (A1) B      2 (B1) A     
  0.0002173421       1 (B2) B      1 (A1) A    ->    4 (A1) A      2 (B1) B     
 -0.0002173421       1 (B2) B      1 (A1) A    ->    2 (B1) B      4 (A1) A     
  0.0000749726       1 (A1) A      1 (B2) A    ->    4 (A1) A      2 (B1) A     
 -0.0000749726       1 (A1) A      1 (B2) A    ->    2 (B1) A      4 (A1) A     
 -0.0000749726       1 (B2) A      1 (A1) A    ->    4 (A1) A      2 (B1) A     
  0.0000749726       1 (B2) A      1 (A1) A    ->    2 (B1) A      4 (A1) A     
  0.0000749726       1 (A1) B      1 (B2) B    ->    4 (A1) B      2 (B1) B     
 -0.0000749726       1 (A1) B      1 (B2) B    ->    2 (B1) B      4 (A1) B     
 -0.0000749726       1 (B2) B      1 (A1) B    ->    4 (A1) B      2 (B1) B     
  0.0000749726       1 (B2) B      1 (A1) B    ->    2 (B1) B      4 (A1) B     

              Summary of significant orbitals:

               Number  Type             Irrep      Energy
               1       Occ  Alpha       1 (A1)    -20.4790
               2       Occ  Alpha       2 (A1)     -1.6964
               4       Occ  Alpha       3 (A1)     -0.5890
               3       Occ  Alpha       1 (B1)     -0.9512
               5       Occ  Alpha       1 (B2)     -0.5526
               1       Occ  Beta        1 (A1)    -20.4790
               2       Occ  Beta        2 (A1)     -1.6964
               4       Occ  Beta        3 (A1)     -0.5890
               3       Occ  Beta        1 (B1)     -0.9512
               5       Occ  Beta        1 (B2)     -0.5526
               6       Vir  Alpha       4 (A1)      0.9901
               7       Vir  Alpha       2 (B1)      1.5156
               6       Vir  Beta        4 (A1)      0.9901
               7       Vir  Beta        2 (B1)      1.5156


 EEs and amplitudes of EOMEE has be exported to fchk file
Running a double precision version
      EOM-CCSD/MP2 left amplitudes will be solved using Davidson.
        Amplitudes will be solved using MOM  algorithm.
     Hard-coded thresholds: 
     LinDepThresh=1.00e-15  NormThresh=1.00e-06  ReorthogonThresh=1.00e-02

      Roots     MaxVec    MaxIter   Precond   Conv      Shift    
      1         120       60        1         1.00e-05  0.00e+00  
 ------------------------------------------------------------------------------
      Iter ConvRoots NVecs ResNorm Current eigenvalues (eV)
 ------------------------------------------------------------------------------
      0    0      1     2.23e-05   39.0382   
      1    0      2     4.01e-05   39.0381   
      2    1      3     5.35e-08   39.0381*  

     Davidson procedure converged

 Excited state properties for  EOMEE-CCSD transition 1/A2
 Dipole moment (a.u.): 0.356098 (X 0.000000, Y 0.000000, Z -0.356098)
 R-squared (a.u.): 14.646709 (XX 5.979179, YY 3.702090, ZZ 4.965440)
 Gauge origin (a.u.): (0.000000, 0.000000, 0.000000)
 Angular momentum (a.u.) against gauge origin: 
 (X 0.000000i, Y 0.000000i, Z 0.000000i)
 Traces of the OPDMs: Tr(AA) 5.000000, Tr(BB) 5.000000

        Solving for EOMEE-CCSD B1 singlet states.

Running a double precision version
        EOMEE-CCSD/MP2 right amplitudes will be solved using Davidson.
        Amplitudes will be solved using standard  algorithm.
     Hard-coded thresholds: 
     LinDepThresh=1.00e-15  NormThresh=1.00e-06  ReorthogonThresh=1.00e-02

      Roots     MaxVec    MaxIter   Precond   Conv      Shift    
      1         120       60        1         1.00e-05  0.00e+00  
 ------------------------------------------------------------------------------
      Iter ConvRoots NVecs ResNorm Current eigenvalues (eV)
 ------------------------------------------------------------------------------
      0    0      1     3.55e-02   39.9309   
      1    0      2     1.08e-01   39.6774   
      2    0      3     4.67e-03   39.4327   
      3    0      4     6.37e-03   39.3366   
      4    0      5     1.04e-03   39.3174   
      5    1      6     4.33e-06   39.3154*  

     Davidson procedure converged

 EOMEE transition 1/B1
 Total energy = -71.69281243 a.u.  Excitation energy = 39.31535533 eV.
 R0^2 = 0.0000  R1^2 = 0.9930  R2^2 = 0.0070  Res^2 = 4.33e-06
 Conv-d = yes

 Amplitude    Transitions between orbitals
 -0.6796994268       1 (B1) A                  ->    4 (A1) A                   
 -0.6796994268       1 (B1) B                  ->    4 (A1) B                   
 -0.1854969820       3 (A1) A                  ->    2 (B1) A                   
 -0.1854969820       3 (A1) B                  ->    2 (B1) B                   
 -0.0086994658       2 (A1) A                  ->    2 (B1) A                   
 -0.0086994658       2 (A1) B                  ->    2 (B1) B                   
 -0.0003058750       1 (A1) A                  ->    2 (B1) A                   
 -0.0003058750       1 (A1) B                  ->    2 (B1) B                   
 -0.0452183839       1 (B1) A      1 (B1) B    ->    4 (A1) A      2 (B1) B     
 -0.0452183839       1 (B1) A      1 (B1) B    ->    2 (B1) A      4 (A1) B     
  0.0452183839       1 (B1) A      1 (B1) B    ->    4 (A1) B      2 (B1) A     
  0.0452183839       1 (B1) A      1 (B1) B    ->    2 (B1) B      4 (A1) A     
  0.0452183839       1 (B1) B      1 (B1) A    ->    4 (A1) A      2 (B1) B     
  0.0452183839       1 (B1) B      1 (B1) A    ->    2 (B1) A      4 (A1) B     
 -0.0452183839       1 (B1) B      1 (B1) A    ->    4 (A1) B      2 (B1) A     
 -0.0452183839       1 (B1) B      1 (B1) A    ->    2 (B1) B      4 (A1) A     
 -0.0238642058       2 (A1) A      3 (A1) B    ->    4 (A1) A      2 (B1) B     
 -0.0238642058       3 (A1) A      2 (A1) B    ->    2 (B1) A      4 (A1) B     
  0.0238642058       3 (A1) A      2 (A1) B    ->    4 (A1) B      2 (B1) A     
  0.0238642058       2 (A1) A      3 (A1) B    ->    2 (B1) B      4 (A1) A     
  0.0238642058       3 (A1) B      2 (A1) A    ->    4 (A1) A      2 (B1) B     
  0.0238642058       2 (A1) B      3 (A1) A    ->    2 (B1) A      4 (A1) B     
 -0.0238642058       2 (A1) B      3 (A1) A    ->    4 (A1) B      2 (B1) A     
 -0.0238642058       3 (A1) B      2 (A1) A    ->    2 (B1) B      4 (A1) A     
 -0.0130838946       2 (A1) A      1 (B1) B    ->    2 (B1) A      2 (B1) B     
  0.0130838946       2 (A1) A      1 (B1) B    ->    2 (B1) B      2 (B1) A     
 -0.0130838946       1 (B1) A      2 (A1) B    ->    2 (B1) A      2 (B1) B     
  0.0130838946       1 (B1) A      2 (A1) B    ->    2 (B1) B      2 (B1) A     
  0.0130838946       2 (A1) B      1 (B1) A    ->    2 (B1) A      2 (B1) B     
 -0.0130838946       2 (A1) B      1 (B1) A    ->    2 (B1) B      2 (B1) A     
  0.0130838946       1 (B1) B      2 (A1) A    ->    2 (B1) A      2 (B1) B     
 -0.0130838946       1 (B1) B      2 (A1) A    ->    2 (B1) B      2 (B1) A     
 -0.0130247159       2 (A1) A      3 (A1) A    ->    4 (A1) A      2 (B1) A     
  0.0130247159       3 (A1) A      2 (A1) A    ->    4 (A1) A      2 (B1) A     
  0.0130247159       2 (A1) A      3 (A1) A    ->    2 (B1) A      4 (A1) A     
 -0.0130247159       3 (A1) A      2 (A1) A    ->    2 (B1) A      4 (A1) A     
 -0.0130247159       2 (A1) B      3 (A1) B    ->    4 (A1) B      2 (B1) B     
  0.0130247159       3 (A1) B      2 (A1) B    ->    4 (A1) B      2 (B1) B     
  0.0130247159       2 (A1) B      3 (A1) B    ->    2 (B1) B      4 (A1) B     
 -0.0130247159       3 (A1) B      2 (A1) B    ->    2 (B1) B      4 (A1) B     
 -0.0119183599       1 (B2) A      1 (B2) B    ->    4 (A1) A      2 (B1) B     
 -0.0119183599       1 (B2) A      1 (B2) B    ->    2 (B1) A      4 (A1) B     
  0.0119183599       1 (B2) A      1 (B2) B    ->    4 (A1) B      2 (B1) A     
  0.0119183599       1 (B2) A      1 (B2) B    ->    2 (B1) B      4 (A1) A     
  0.0119183599       1 (B2) B      1 (B2) A    ->    4 (A1) A      2 (B1) B     
  0.0119183599       1 (B2) B      1 (B2) A    ->    2 (B1) A      4 (A1) B     
 -0.0119183599       1 (B2) B      1 (B2) A    ->    4 (A1) B      2 (B1) A     
 -0.0119183599       1 (B2) B      1 (B2) A    ->    2 (B1) B      4 (A1) A     
 -0.0119014763       3 (A1) A      1 (B1) B    ->    4 (A1) A      4 (A1) B     
  0.0119014763       3 (A1) A      1 (B1) B    ->    4 (A1) B      4 (A1) A     
 -0.0119014763       1 (B1) A      3 (A1) B    ->    4 (A1) A      4 (A1) B     
  0.0119014763       1 (B1) A      3 (A1) B    ->    4 (A1) B      4 (A1) A     
  0.0119014763       3 (A1) B      1 (B1) A    ->    4 (A1) A      4 (A1) B     
 -0.0119014763       3 (A1) B      1 (B1) A    ->    4 (A1) B      4 (A1) A     
  0.0119014763       1 (B1) B      3 (A1) A    ->    4 (A1) A      4 (A1) B     
 -0.0119014763       1 (B1) B      3 (A1) A    ->    4 (A1) B      4 (A1) A     
 -0.0113136725       3 (A1) A      3 (A1) B    ->    4 (A1) A      2 (B1) B     
 -0.0113136725       3 (A1) A      3 (A1) B    ->    2 (B1) A      4 (A1) B     
  0.0113136725       3 (A1) A      3 (A1) B    ->    4 (A1) B      2 (B1) A     
  0.0113136725       3 (A1) A      3 (A1) B    ->    2 (B1) B      4 (A1) A     
  0.0113136725       3 (A1) B      3 (A1) A    ->    4 (A1) A      2 (B1) B     
  0.0113136725       3 (A1) B      3 (A1) A    ->    2 (B1) A      4 (A1) B     
 -0.0113136725       3 (A1) B      3 (A1) A    ->    4 (A1) B      2 (B1) A     
 -0.0113136725       3 (A1) B      3 (A1) A    ->    2 (B1) B      4 (A1) A     
 -0.0108217686       3 (A1) A      2 (A1) B    ->    4 (A1) A      2 (B1) B     
 -0.0108217686       2 (A1) A      3 (A1) B    ->    2 (B1) A      4 (A1) B     
  0.0108217686       2 (A1) A      3 (A1) B    ->    4 (A1) B      2 (B1) A     
  0.0108217686       3 (A1) A      2 (A1) B    ->    2 (B1) B      4 (A1) A     
  0.0108217686       2 (A1) B      3 (A1) A    ->    4 (A1) A      2 (B1) B     
  0.0108217686       3 (A1) B      2 (A1) A    ->    2 (B1) A      4 (A1) B     
 -0.0108217686       3 (A1) B      2 (A1) A    ->    4 (A1) B      2 (B1) A     
 -0.0108217686       2 (A1) B      3 (A1) A    ->    2 (B1) B      4 (A1) A     
  0.0050864671       2 (A1) A      2 (A1) B    ->    4 (A1) A      2 (B1) B     
  0.0050864671       2 (A1) A      2 (A1) B    ->    2 (B1) A      4 (A1) B     
 -0.0050864671       2 (A1) A      2 (A1) B    ->    4 (A1) B      2 (B1) A     
 -0.0050864671       2 (A1) A      2 (A1) B    ->    2 (B1) B      4 (A1) A     
 -0.0050864671       2 (A1) B      2 (A1) A    ->    4 (A1) A      2 (B1) B     
 -0.0050864671       2 (A1) B      2 (A1) A    ->    2 (B1) A      4 (A1) B     
  0.0050864671       2 (A1) B      2 (A1) A    ->    4 (A1) B      2 (B1) A     
  0.0050864671       2 (A1) B      2 (A1) A    ->    2 (B1) B      4 (A1) A     
 -0.0035944232       2 (A1) A      1 (B1) B    ->    4 (A1) A      4 (A1) B     
  0.0035944232       2 (A1) A      1 (B1) B    ->    4 (A1) B      4 (A1) A     
 -0.0035944232       1 (B1) A      2 (A1) B    ->    4 (A1) A      4 (A1) B     
  0.0035944232       1 (B1) A      2 (A1) B    ->    4 (A1) B      4 (A1) A     
  0.0035944232       2 (A1) B      1 (B1) A    ->    4 (A1) A      4 (A1) B     
 -0.0035944232       2 (A1) B      1 (B1) A    ->    4 (A1) B      4 (A1) A     
  0.0035944232       1 (B1) B      2 (A1) A    ->    4 (A1) A      4 (A1) B     
 -0.0035944232       1 (B1) B      2 (A1) A    ->    4 (A1) B      4 (A1) A     
  0.0006259914       2 (A1) A      1 (A1) B    ->    4 (A1) A      2 (B1) B     
  0.0006259914       1 (A1) A      2 (A1) B    ->    2 (B1) A      4 (A1) B     
 -0.0006259914       1 (A1) A      2 (A1) B    ->    4 (A1) B      2 (B1) A     
 -0.0006259914       2 (A1) A      1 (A1) B    ->    2 (B1) B      4 (A1) A     
 -0.0006259914       1 (A1) B      2 (A1) A    ->    4 (A1) A      2 (B1) B     
 -0.0006259914       2 (A1) B      1 (A1) A    ->    2 (B1) A      4 (A1) B     
  0.0006259914       2 (A1) B      1 (A1) A    ->    4 (A1) B      2 (B1) A     
  0.0006259914       1 (A1) B      2 (A1) A    ->    2 (B1) B      4 (A1) A     
 -0.0005372215       1 (A1) A      2 (A1) A    ->    4 (A1) A      2 (B1) A     
  0.0005372215       2 (A1) A      1 (A1) A    ->    4 (A1) A      2 (B1) A     
  0.0005372215       1 (A1) A      2 (A1) A    ->    2 (B1) A      4 (A1) A     
 -0.0005372215       2 (A1) A      1 (A1) A    ->    2 (B1) A      4 (A1) A     
 -0.0005372215       1 (A1) B      2 (A1) B    ->    4 (A1) B      2 (B1) B     
  0.0005372215       2 (A1) B      1 (A1) B    ->    4 (A1) B      2 (B1) B     
  0.0005372215       1 (A1) B      2 (A1) B    ->    2 (B1) B      4 (A1) B     
 -0.0005372215       2 (A1) B      1 (A1) B    ->    2 (B1) B      4 (A1) B     
  0.0003845036       1 (A1) A      3 (A1) B    ->    4 (A1) A      2 (B1) B     
  0.0003845036       3 (A1) A      1 (A1) B    ->    2 (B1) A      4 (A1) B     
 -0.0003845036       3 (A1) A      1 (A1) B    ->    4 (A1) B      2 (B1) A     
 -0.0003845036       1 (A1) A      3 (A1) B    ->    2 (B1) B      4 (A1) A     
 -0.0003845036       3 (A1) B      1 (A1) A    ->    4 (A1) A      2 (B1) B     
 -0.0003845036       1 (A1) B      3 (A1) A    ->    2 (B1) A      4 (A1) B     
  0.0003845036       1 (A1) B      3 (A1) A    ->    4 (A1) B      2 (B1) A     
  0.0003845036       3 (A1) B      1 (A1) A    ->    2 (B1) B      4 (A1) A     
 -0.0003685146       1 (A1) A      1 (A1) B    ->    4 (A1) A      2 (B1) B     
 -0.0003685146       1 (A1) A      1 (A1) B    ->    2 (B1) A      4 (A1) B     
  0.0003685146       1 (A1) A      1 (A1) B    ->    4 (A1) B      2 (B1) A     
  0.0003685146       1 (A1) A      1 (A1) B    ->    2 (B1) B      4 (A1) A     
  0.0003685146       1 (A1) B      1 (A1) A    ->    4 (A1) A      2 (B1) B     
  0.0003685146       1 (A1) B      1 (A1) A    ->    2 (B1) A      4 (A1) B     
 -0.0003685146       1 (A1) B      1 (A1) A    ->    4 (A1) B      2 (B1) A     
 -0.0003685146       1 (A1) B      1 (A1) A    ->    2 (B1) B      4 (A1) A     
  0.0002946608       3 (A1) A      1 (A1) B    ->    4 (A1) A      2 (B1) B     
  0.0002946608       1 (A1) A      3 (A1) B    ->    2 (B1) A      4 (A1) B     
 -0.0002946608       1 (A1) A      3 (A1) B    ->    4 (A1) B      2 (B1) A     
 -0.0002946608       3 (A1) A      1 (A1) B    ->    2 (B1) B      4 (A1) A     
 -0.0002946608       1 (A1) B      3 (A1) A    ->    4 (A1) A      2 (B1) B     
 -0.0002946608       3 (A1) B      1 (A1) A    ->    2 (B1) A      4 (A1) B     
  0.0002946608       3 (A1) B      1 (A1) A    ->    4 (A1) B      2 (B1) A     
  0.0002946608       1 (A1) B      3 (A1) A    ->    2 (B1) B      4 (A1) A     
 -0.0002294599       1 (A1) A      1 (B1) B    ->    2 (B1) A      2 (B1) B     
  0.0002294599       1 (A1) A      1 (B1) B    ->    2 (B1) B      2 (B1) A     
 -0.0002294599       1 (B1) A      1 (A1) B    ->    2 (B1) A      2 (B1) B     
  0.0002294599       1 (B1) A      1 (A1) B    ->    2 (B1) B      2 (B1) A     
  0.0002294599       1 (A1) B      1 (B1) A    ->    2 (B1) A      2 (B1) B     
 -0.0002294599       1 (A1) B      1 (B1) A    ->    2 (B1) B      2 (B1) A     
  0.0002294599       1 (B1) B      1 (A1) A    ->    2 (B1) A      2 (B1) B     
 -0.0002294599       1 (B1) B      1 (A1) A    ->    2 (B1) B      2 (B1) A     
 -0.0001927486       3 (A1) A      1 (B1) B    ->    2 (B1) A      2 (B1) B     
  0.0001927486       3 (A1) A      1 (B1) B    ->    2 (B1) B      2 (B1) A     
 -0.0001927486       1 (B1) A      3 (A1) B    ->    2 (B1) A      2 (B1) B     
  0.0001927486       1 (B1) A      3 (A1) B    ->    2 (B1) B      2 (B1) A     
  0.0001927486       3 (A1) B      1 (B1) A    ->    2 (B1) A      2 (B1) B     
 -0.0001927486       3 (A1) B      1 (B1) A    ->    2 (B1) B      2 (B1) A     
  0.0001927486       1 (B1) B      3 (A1) A    ->    2 (B1) A      2 (B1) B     
 -0.0001927486       1 (B1) B      3 (A1) A    ->    2 (B1) B      2 (B1) A     
  0.0000894033       1 (A1) A      3 (A1) A    ->    4 (A1) A      2 (B1) A     
 -0.0000894033       3 (A1) A      1 (A1) A    ->    4 (A1) A      2 (B1) A     
 -0.0000894033       1 (A1) A      3 (A1) A    ->    2 (B1) A      4 (A1) A     
  0.0000894033       3 (A1) A      1 (A1) A    ->    2 (B1) A      4 (A1) A     
  0.0000894033       1 (A1) B      3 (A1) B    ->    4 (A1) B      2 (B1) B     
 -0.0000894033       3 (A1) B      1 (A1) B    ->    4 (A1) B      2 (B1) B     
 -0.0000894033       1 (A1) B      3 (A1) B    ->    2 (B1) B      4 (A1) B     
  0.0000894033       3 (A1) B      1 (A1) B    ->    2 (B1) B      4 (A1) B     
  0.0000856327       1 (A1) A      2 (A1) B    ->    4 (A1) A      2 (B1) B     
  0.0000856327       2 (A1) A      1 (A1) B    ->    2 (B1) A      4 (A1) B     
 -0.0000856327       2 (A1) A      1 (A1) B    ->    4 (A1) B      2 (B1) A     
 -0.0000856327       1 (A1) A      2 (A1) B    ->    2 (B1) B      4 (A1) A     
 -0.0000856327       2 (A1) B      1 (A1) A    ->    4 (A1) A      2 (B1) B     
 -0.0000856327       1 (A1) B      2 (A1) A    ->    2 (B1) A      4 (A1) B     
  0.0000856327       1 (A1) B      2 (A1) A    ->    4 (A1) B      2 (B1) A     
  0.0000856327       2 (A1) B      1 (A1) A    ->    2 (B1) B      4 (A1) A     
  0.0000109386       1 (A1) A      1 (B1) B    ->    4 (A1) A      4 (A1) B     
 -0.0000109386       1 (A1) A      1 (B1) B    ->    4 (A1) B      4 (A1) A     
  0.0000109386       1 (B1) A      1 (A1) B    ->    4 (A1) A      4 (A1) B     
 -0.0000109386       1 (B1) A      1 (A1) B    ->    4 (A1) B      4 (A1) A     
 -0.0000109386       1 (A1) B      1 (B1) A    ->    4 (A1) A      4 (A1) B     
  0.0000109386       1 (A1) B      1 (B1) A    ->    4 (A1) B      4 (A1) A     
 -0.0000109386       1 (B1) B      1 (A1) A    ->    4 (A1) A      4 (A1) B     
  0.0000109386       1 (B1) B      1 (A1) A    ->    4 (A1) B      4 (A1) A     

              Summary of significant orbitals:

               Number  Type             Irrep      Energy
               1       Occ  Alpha       1 (A1)    -20.4790
               2       Occ  Alpha       2 (A1)     -1.6964
               4       Occ  Alpha       3 (A1)     -0.5890
               3       Occ  Alpha       1 (B1)     -0.9512
               5       Occ  Alpha       1 (B2)     -0.5526
               1       Occ  Beta        1 (A1)    -20.4790
               2       Occ  Beta        2 (A1)     -1.6964
               4       Occ  Beta        3 (A1)     -0.5890
               3       Occ  Beta        1 (B1)     -0.9512
               5       Occ  Beta        1 (B2)     -0.5526
               6       Vir  Alpha       4 (A1)      0.9901
               7       Vir  Alpha       2 (B1)      1.5156
               6       Vir  Beta        4 (A1)      0.9901
               7       Vir  Beta        2 (B1)      1.5156


 EEs and amplitudes of EOMEE has be exported to fchk file
Running a double precision version
      EOM-CCSD/MP2 left amplitudes will be solved using Davidson.
        Amplitudes will be solved using MOM  algorithm.
     Hard-coded thresholds: 
     LinDepThresh=1.00e-15  NormThresh=1.00e-06  ReorthogonThresh=1.00e-02

      Roots     MaxVec    MaxIter   Precond   Conv      Shift    
      1         120       60        1         1.00e-05  0.00e+00  
 ------------------------------------------------------------------------------
      Iter ConvRoots NVecs ResNorm Current eigenvalues (eV)
 ------------------------------------------------------------------------------
      0    0      1     3.48e-05   39.3154   
      1    0      2     1.48e-04   39.3153   
      2    1      3     9.06e-07   39.3154*  

     Davidson procedure converged

 Excited state properties for  EOMEE-CCSD transition 1/B1
 Dipole moment (a.u.): 0.138249 (X 0.000000, Y 0.000000, Z -0.138249)
 R-squared (a.u.): 16.194524 (XX 5.629920, YY 4.924237, ZZ 5.640367)
 Gauge origin (a.u.): (0.000000, 0.000000, 0.000000)
 Angular momentum (a.u.) against gauge origin: 
 (X 0.000000i, Y 0.000000i, Z 0.000000i)
 Traces of the OPDMs: Tr(AA) 5.000000, Tr(BB) 5.000000

        Solving for EOMEE-CCSD B2 singlet states.

Running a double precision version
        EOMEE-CCSD/MP2 right amplitudes will be solved using Davidson.
        Amplitudes will be solved using standard  algorithm.
     Hard-coded thresholds: 
     LinDepThresh=1.00e-15  NormThresh=1.00e-06  ReorthogonThresh=1.00e-02

      Roots     MaxVec    MaxIter   Precond   Conv      Shift    
      1         120       60        1         1.00e-05  0.00e+00  
 ------------------------------------------------------------------------------
      Iter ConvRoots NVecs ResNorm Current eigenvalues (eV)
 ------------------------------------------------------------------------------
      0    0      1     5.53e-02   29.2924   
      1    0      2     2.51e-02   28.6498   
      2    0      3     1.12e-04   28.6095   
      3    1      4     2.02e-06   28.6087*  

     Davidson procedure converged

 EOMEE transition 1/B2
 Total energy = -72.08627337 a.u.  Excitation energy = 28.60873867 eV.
 R0^2 = 0.0000  R1^2 = 0.9887  R2^2 = 0.0113  Res^2 = 2.02e-06
 Conv-d = yes

 Amplitude    Transitions between orbitals
  0.7030980367       1 (B2) A                  ->    4 (A1) A                   
  0.7030980367       1 (B2) B                  ->    4 (A1) B                   
  0.0494263150       2 (A1) A      1 (B2) B    ->    4 (A1) A      4 (A1) B     
 -0.0494263150       2 (A1) A      1 (B2) B    ->    4 (A1) B      4 (A1) A     
  0.0494263150       1 (B2) A      2 (A1) B    ->    4 (A1) A      4 (A1) B     
 -0.0494263150       1 (B2) A      2 (A1) B    ->    4 (A1) B      4 (A1) A     
 -0.0494263150       2 (A1) B      1 (B2) A    ->    4 (A1) A      4 (A1) B     
  0.0494263150       2 (A1) B      1 (B2) A    ->    4 (A1) B      4 (A1) A     
 -0.0494263150       1 (B2) B      2 (A1) A    ->    4 (A1) A      4 (A1) B     
  0.0494263150       1 (B2) B      2 (A1) A    ->    4 (A1) B      4 (A1) A     
  0.0436879089       1 (B1) A      1 (B2) B    ->    2 (B1) A      4 (A1) B     
 -0.0436879089       1 (B1) A      1 (B2) B    ->    4 (A1) B      2 (B1) A     
  0.0436879089       1 (B2) A      1 (B1) B    ->    4 (A1) A      2 (B1) B     
 -0.0436879089       1 (B2) A      1 (B1) B    ->    2 (B1) B      4 (A1) A     
 -0.0436879089       1 (B1) B      1 (B2) A    ->    4 (A1) A      2 (B1) B     
  0.0436879089       1 (B1) B      1 (B2) A    ->    2 (B1) B      4 (A1) A     
 -0.0436879089       1 (B2) B      1 (B1) A    ->    2 (B1) A      4 (A1) B     
  0.0436879089       1 (B2) B      1 (B1) A    ->    4 (A1) B      2 (B1) A     
  0.0248110017       1 (B1) A      1 (B2) B    ->    4 (A1) A      2 (B1) B     
 -0.0248110017       1 (B1) A      1 (B2) B    ->    2 (B1) B      4 (A1) A     
  0.0248110017       1 (B2) A      1 (B1) B    ->    2 (B1) A      4 (A1) B     
 -0.0248110017       1 (B2) A      1 (B1) B    ->    4 (A1) B      2 (B1) A     
 -0.0248110017       1 (B1) B      1 (B2) A    ->    2 (B1) A      4 (A1) B     
  0.0248110017       1 (B1) B      1 (B2) A    ->    4 (A1) B      2 (B1) A     
 -0.0248110017       1 (B2) B      1 (B1) A    ->    4 (A1) A      2 (B1) B     
  0.0248110017       1 (B2) B      1 (B1) A    ->    2 (B1) B      4 (A1) A     
 -0.0188685891       1 (B1) A      1 (B2) A    ->    4 (A1) A      2 (B1) A     
  0.0188685891       1 (B1) A      1 (B2) A    ->    2 (B1) A      4 (A1) A     
  0.0188685891       1 (B2) A      1 (B1) A    ->    4 (A1) A      2 (B1) A     
 -0.0188685891       1 (B2) A      1 (B1) A    ->    2 (B1) A      4 (A1) A     
 -0.0188685891       1 (B1) B      1 (B2) B    ->    4 (A1) B      2 (B1) B     
  0.0188685891       1 (B1) B      1 (B2) B    ->    2 (B1) B      4 (A1) B     
  0.0188685891       1 (B2) B      1 (B1) B    ->    4 (A1) B      2 (B1) B     
 -0.0188685891       1 (B2) B      1 (B1) B    ->    2 (B1) B      4 (A1) B     
 -0.0148919413       3 (A1) A      1 (B2) B    ->    2 (B1) A      2 (B1) B     
  0.0148919413       3 (A1) A      1 (B2) B    ->    2 (B1) B      2 (B1) A     
 -0.0148919413       1 (B2) A      3 (A1) B    ->    2 (B1) A      2 (B1) B     
  0.0148919413       1 (B2) A      3 (A1) B    ->    2 (B1) B      2 (B1) A     
  0.0148919413       3 (A1) B      1 (B2) A    ->    2 (B1) A      2 (B1) B     
 -0.0148919413       3 (A1) B      1 (B2) A    ->    2 (B1) B      2 (B1) A     
  0.0148919413       1 (B2) B      3 (A1) A    ->    2 (B1) A      2 (B1) B     
 -0.0148919413       1 (B2) B      3 (A1) A    ->    2 (B1) B      2 (B1) A     
  0.0076214072       3 (A1) A      1 (B2) B    ->    4 (A1) A      4 (A1) B     
 -0.0076214072       3 (A1) A      1 (B2) B    ->    4 (A1) B      4 (A1) A     
  0.0076214072       1 (B2) A      3 (A1) B    ->    4 (A1) A      4 (A1) B     
 -0.0076214072       1 (B2) A      3 (A1) B    ->    4 (A1) B      4 (A1) A     
 -0.0076214072       3 (A1) B      1 (B2) A    ->    4 (A1) A      4 (A1) B     
  0.0076214072       3 (A1) B      1 (B2) A    ->    4 (A1) B      4 (A1) A     
 -0.0076214072       1 (B2) B      3 (A1) A    ->    4 (A1) A      4 (A1) B     
  0.0076214072       1 (B2) B      3 (A1) A    ->    4 (A1) B      4 (A1) A     
  0.0070501647       2 (A1) A      1 (B2) B    ->    2 (B1) A      2 (B1) B     
 -0.0070501647       2 (A1) A      1 (B2) B    ->    2 (B1) B      2 (B1) A     
  0.0070501647       1 (B2) A      2 (A1) B    ->    2 (B1) A      2 (B1) B     
 -0.0070501647       1 (B2) A      2 (A1) B    ->    2 (B1) B      2 (B1) A     
 -0.0070501647       2 (A1) B      1 (B2) A    ->    2 (B1) A      2 (B1) B     
  0.0070501647       2 (A1) B      1 (B2) A    ->    2 (B1) B      2 (B1) A     
 -0.0070501647       1 (B2) B      2 (A1) A    ->    2 (B1) A      2 (B1) B     
  0.0070501647       1 (B2) B      2 (A1) A    ->    2 (B1) B      2 (B1) A     
 -0.0005070085       1 (A1) A      1 (B2) B    ->    4 (A1) A      4 (A1) B     
  0.0005070085       1 (A1) A      1 (B2) B    ->    4 (A1) B      4 (A1) A     
 -0.0005070085       1 (B2) A      1 (A1) B    ->    4 (A1) A      4 (A1) B     
  0.0005070085       1 (B2) A      1 (A1) B    ->    4 (A1) B      4 (A1) A     
  0.0005070085       1 (A1) B      1 (B2) A    ->    4 (A1) A      4 (A1) B     
 -0.0005070085       1 (A1) B      1 (B2) A    ->    4 (A1) B      4 (A1) A     
  0.0005070085       1 (B2) B      1 (A1) A    ->    4 (A1) A      4 (A1) B     
 -0.0005070085       1 (B2) B      1 (A1) A    ->    4 (A1) B      4 (A1) A     
  0.0003601956       1 (A1) A      1 (B2) B    ->    2 (B1) A      2 (B1) B     
 -0.0003601956       1 (A1) A      1 (B2) B    ->    2 (B1) B      2 (B1) A     
  0.0003601956       1 (B2) A      1 (A1) B    ->    2 (B1) A      2 (B1) B     
 -0.0003601956       1 (B2) A      1 (A1) B    ->    2 (B1) B      2 (B1) A     
 -0.0003601956       1 (A1) B      1 (B2) A    ->    2 (B1) A      2 (B1) B     
  0.0003601956       1 (A1) B      1 (B2) A    ->    2 (B1) B      2 (B1) A     
 -0.0003601956       1 (B2) B      1 (A1) A    ->    2 (B1) A      2 (B1) B     
  0.0003601956       1 (B2) B      1 (A1) A    ->    2 (B1) B      2 (B1) A     

              Summary of significant orbitals:

               Number  Type             Irrep      Energy
               1       Occ  Alpha       1 (A1)    -20.4790
               2       Occ  Alpha       2 (A1)     -1.6964
               4       Occ  Alpha       3 (A1)     -0.5890
               3       Occ  Alpha       1 (B1)     -0.9512
               5       Occ  Alpha       1 (B2)     -0.5526
               1       Occ  Beta        1 (A1)    -20.4790
               2       Occ  Beta        2 (A1)     -1.6964
               4       Occ  Beta        3 (A1)     -0.5890
               3       Occ  Beta        1 (B1)     -0.9512
               5       Occ  Beta        1 (B2)     -0.5526
               6       Vir  Alpha       4 (A1)      0.9901
               7       Vir  Alpha       2 (B1)      1.5156
               6       Vir  Beta        4 (A1)      0.9901
               7       Vir  Beta        2 (B1)      1.5156


 EEs and amplitudes of EOMEE has be exported to fchk file
Running a double precision version
      EOM-CCSD/MP2 left amplitudes will be solved using Davidson.
        Amplitudes will be solved using MOM  algorithm.
     Hard-coded thresholds: 
     LinDepThresh=1.00e-15  NormThresh=1.00e-06  ReorthogonThresh=1.00e-02

      Roots     MaxVec    MaxIter   Precond   Conv      Shift    
      1         120       60        1         1.00e-05  0.00e+00  
 ------------------------------------------------------------------------------
      Iter ConvRoots NVecs ResNorm Current eigenvalues (eV)
 ------------------------------------------------------------------------------
      0    0      1     4.61e-05   28.6087   
      1    0      2     9.42e-05   28.6087   
      2    1      3     1.06e-07   28.6088*  

     Davidson procedure converged

 Excited state properties for  EOMEE-CCSD transition 1/B2
 Dipole moment (a.u.): 0.041790 (X 0.000000, Y 0.000000, Z -0.041790)
 R-squared (a.u.): 16.526642 (XX 6.354921, YY 4.405874, ZZ 5.765848)
 Gauge origin (a.u.): (0.000000, 0.000000, 0.000000)
 Angular momentum (a.u.) against gauge origin: 
 (X 0.000000i, Y 0.000000i, Z 0.000000i)
 Traces of the OPDMs: Tr(AA) 5.000000, Tr(BB) 5.000000

        Solving for EOMEE-CCSD A1 triplet states.

Running a double precision version
        EOMEE-CCSD/MP2 right amplitudes will be solved using Davidson.
        Amplitudes will be solved using standard  algorithm.
     Hard-coded thresholds: 
     LinDepThresh=1.00e-15  NormThresh=1.00e-06  ReorthogonThresh=1.00e-02

      Roots     MaxVec    MaxIter   Precond   Conv      Shift    
      1         120       60        1         1.00e-05  0.00e+00  
 ------------------------------------------------------------------------------
      Iter ConvRoots NVecs ResNorm Current eigenvalues (eV)
 ------------------------------------------------------------------------------
      0    0      1     4.83e-02   29.1824   
      1    0      2     7.56e-02   28.7141   
      2    0      3     3.17e-04   28.5580   
      3    0      4     1.22e-05   28.5559   
      4    1      5     3.05e-07   28.5559*  

     Davidson procedure converged

 EOMEE transition 1/A1
 Total energy = -72.08821409 a.u.  Excitation energy = 28.55592902 eV.
 R0^2 = 0.0000  R1^2 = 0.9908  R2^2 = 0.0092  Res^2 = 3.05e-07
 Conv-d = yes

 Amplitude    Transitions between orbitals
 -0.7029981956       3 (A1) A                  ->    4 (A1) A                   
  0.7029981956       3 (A1) B                  ->    4 (A1) B                   
  0.0342444297       2 (A1) A                  ->    4 (A1) A                   
 -0.0342444297       2 (A1) B                  ->    4 (A1) B                   
 -0.0050570141       1 (B1) A                  ->    2 (B1) A                   
  0.0050570141       1 (B1) B                  ->    2 (B1) B                   
 -0.0006812004       1 (A1) A                  ->    4 (A1) A                   
  0.0006812004       1 (A1) B                  ->    4 (A1) B                   
 -0.0587065409       3 (A1) A      1 (B1) B    ->    4 (A1) A      2 (B1) B     
  0.0587065409       3 (A1) A      1 (B1) B    ->    2 (B1) B      4 (A1) A     
  0.0587065409       1 (B1) A      3 (A1) B    ->    2 (B1) A      4 (A1) B     
 -0.0587065409       1 (B1) A      3 (A1) B    ->    4 (A1) B      2 (B1) A     
 -0.0587065409       3 (A1) B      1 (B1) A    ->    2 (B1) A      4 (A1) B     
  0.0587065409       3 (A1) B      1 (B1) A    ->    4 (A1) B      2 (B1) A     
  0.0587065409       1 (B1) B      3 (A1) A    ->    4 (A1) A      2 (B1) B     
 -0.0587065409       1 (B1) B      3 (A1) A    ->    2 (B1) B      4 (A1) A     
 -0.0255710236       3 (A1) A      1 (B1) A    ->    4 (A1) A      2 (B1) A     
  0.0255710236       3 (A1) A      1 (B1) A    ->    2 (B1) A      4 (A1) A     
  0.0255710236       1 (B1) A      3 (A1) A    ->    4 (A1) A      2 (B1) A     
 -0.0255710236       1 (B1) A      3 (A1) A    ->    2 (B1) A      4 (A1) A     
  0.0255710236       3 (A1) B      1 (B1) B    ->    4 (A1) B      2 (B1) B     
 -0.0255710236       3 (A1) B      1 (B1) B    ->    2 (B1) B      4 (A1) B     
 -0.0255710236       1 (B1) B      3 (A1) B    ->    4 (A1) B      2 (B1) B     
  0.0255710236       1 (B1) B      3 (A1) B    ->    2 (B1) B      4 (A1) B     
  0.0139024811       2 (A1) A      3 (A1) B    ->    4 (A1) A      4 (A1) B     
 -0.0139024811       3 (A1) A      2 (A1) B    ->    4 (A1) A      4 (A1) B     
 -0.0139024811       2 (A1) A      3 (A1) B    ->    4 (A1) B      4 (A1) A     
  0.0139024811       3 (A1) A      2 (A1) B    ->    4 (A1) B      4 (A1) A     
 -0.0139024811       3 (A1) B      2 (A1) A    ->    4 (A1) A      4 (A1) B     
  0.0139024811       2 (A1) B      3 (A1) A    ->    4 (A1) A      4 (A1) B     
 -0.0139024811       2 (A1) B      3 (A1) A    ->    4 (A1) B      4 (A1) A     
  0.0139024811       3 (A1) B      2 (A1) A    ->    4 (A1) B      4 (A1) A     
 -0.0119078144       2 (A1) A      1 (B1) B    ->    4 (A1) A      2 (B1) B     
  0.0119078144       2 (A1) A      1 (B1) B    ->    2 (B1) B      4 (A1) A     
  0.0119078144       1 (B1) A      2 (A1) B    ->    2 (B1) A      4 (A1) B     
 -0.0119078144       1 (B1) A      2 (A1) B    ->    4 (A1) B      2 (B1) A     
 -0.0119078144       2 (A1) B      1 (B1) A    ->    2 (B1) A      4 (A1) B     
  0.0119078144       2 (A1) B      1 (B1) A    ->    4 (A1) B      2 (B1) A     
  0.0119078144       1 (B1) B      2 (A1) A    ->    4 (A1) A      2 (B1) B     
 -0.0119078144       1 (B1) B      2 (A1) A    ->    2 (B1) B      4 (A1) A     
  0.0081252282       2 (A1) A      3 (A1) B    ->    2 (B1) A      2 (B1) B     
 -0.0081252282       3 (A1) A      2 (A1) B    ->    2 (B1) A      2 (B1) B     
 -0.0081252282       2 (A1) A      3 (A1) B    ->    2 (B1) B      2 (B1) A     
  0.0081252282       3 (A1) A      2 (A1) B    ->    2 (B1) B      2 (B1) A     
 -0.0081252282       3 (A1) B      2 (A1) A    ->    2 (B1) A      2 (B1) B     
  0.0081252282       2 (A1) B      3 (A1) A    ->    2 (B1) A      2 (B1) B     
 -0.0081252282       2 (A1) B      3 (A1) A    ->    2 (B1) B      2 (B1) A     
  0.0081252282       3 (A1) B      2 (A1) A    ->    2 (B1) B      2 (B1) A     
  0.0077262719       2 (A1) A      1 (B1) B    ->    2 (B1) A      4 (A1) B     
 -0.0077262719       2 (A1) A      1 (B1) B    ->    4 (A1) B      2 (B1) A     
 -0.0077262719       1 (B1) A      2 (A1) B    ->    4 (A1) A      2 (B1) B     
  0.0077262719       1 (B1) A      2 (A1) B    ->    2 (B1) B      4 (A1) A     
  0.0077262719       2 (A1) B      1 (B1) A    ->    4 (A1) A      2 (B1) B     
 -0.0077262719       2 (A1) B      1 (B1) A    ->    2 (B1) B      4 (A1) A     
 -0.0077262719       1 (B1) B      2 (A1) A    ->    2 (B1) A      4 (A1) B     
  0.0077262719       1 (B1) B      2 (A1) A    ->    4 (A1) B      2 (B1) A     
 -0.0057027972       2 (A1) A      1 (B1) A    ->    4 (A1) A      2 (B1) A     
  0.0057027972       2 (A1) A      1 (B1) A    ->    2 (B1) A      4 (A1) A     
  0.0057027972       1 (B1) A      2 (A1) A    ->    4 (A1) A      2 (B1) A     
 -0.0057027972       1 (B1) A      2 (A1) A    ->    2 (B1) A      4 (A1) A     
  0.0057027972       2 (A1) B      1 (B1) B    ->    4 (A1) B      2 (B1) B     
 -0.0057027972       2 (A1) B      1 (B1) B    ->    2 (B1) B      4 (A1) B     
 -0.0057027972       1 (B1) B      2 (A1) B    ->    4 (A1) B      2 (B1) B     
  0.0057027972       1 (B1) B      2 (A1) B    ->    2 (B1) B      4 (A1) B     
  0.0008971035       1 (A1) A      3 (A1) B    ->    4 (A1) A      4 (A1) B     
 -0.0008971035       3 (A1) A      1 (A1) B    ->    4 (A1) A      4 (A1) B     
 -0.0008971035       1 (A1) A      3 (A1) B    ->    4 (A1) B      4 (A1) A     
  0.0008971035       3 (A1) A      1 (A1) B    ->    4 (A1) B      4 (A1) A     
 -0.0008971035       3 (A1) B      1 (A1) A    ->    4 (A1) A      4 (A1) B     
  0.0008971035       1 (A1) B      3 (A1) A    ->    4 (A1) A      4 (A1) B     
 -0.0008971035       1 (A1) B      3 (A1) A    ->    4 (A1) B      4 (A1) A     
  0.0008971035       3 (A1) B      1 (A1) A    ->    4 (A1) B      4 (A1) A     
  0.0003825584       1 (A1) A      3 (A1) B    ->    2 (B1) A      2 (B1) B     
 -0.0003825584       3 (A1) A      1 (A1) B    ->    2 (B1) A      2 (B1) B     
 -0.0003825584       1 (A1) A      3 (A1) B    ->    2 (B1) B      2 (B1) A     
  0.0003825584       3 (A1) A      1 (A1) B    ->    2 (B1) B      2 (B1) A     
 -0.0003825584       3 (A1) B      1 (A1) A    ->    2 (B1) A      2 (B1) B     
  0.0003825584       1 (A1) B      3 (A1) A    ->    2 (B1) A      2 (B1) B     
 -0.0003825584       1 (A1) B      3 (A1) A    ->    2 (B1) B      2 (B1) A     
  0.0003825584       3 (A1) B      1 (A1) A    ->    2 (B1) B      2 (B1) A     
 -0.0003680921       1 (A1) A      1 (B1) B    ->    2 (B1) A      4 (A1) B     
  0.0003680921       1 (A1) A      1 (B1) B    ->    4 (A1) B      2 (B1) A     
  0.0003680921       1 (B1) A      1 (A1) B    ->    4 (A1) A      2 (B1) B     
 -0.0003680921       1 (B1) A      1 (A1) B    ->    2 (B1) B      4 (A1) A     
 -0.0003680921       1 (A1) B      1 (B1) A    ->    4 (A1) A      2 (B1) B     
  0.0003680921       1 (A1) B      1 (B1) A    ->    2 (B1) B      4 (A1) A     
  0.0003680921       1 (B1) B      1 (A1) A    ->    2 (B1) A      4 (A1) B     
 -0.0003680921       1 (B1) B      1 (A1) A    ->    4 (A1) B      2 (B1) A     
  0.0002405785       1 (A1) A      1 (B1) B    ->    4 (A1) A      2 (B1) B     
 -0.0002405785       1 (A1) A      1 (B1) B    ->    2 (B1) B      4 (A1) A     
 -0.0002405785       1 (B1) A      1 (A1) B    ->    2 (B1) A      4 (A1) B     
  0.0002405785       1 (B1) A      1 (A1) B    ->    4 (A1) B      2 (B1) A     
  0.0002405785       1 (A1) B      1 (B1) A    ->    2 (B1) A      4 (A1) B     
 -0.0002405785       1 (A1) B      1 (B1) A    ->    4 (A1) B      2 (B1) A     
 -0.0002405785       1 (B1) B      1 (A1) A    ->    4 (A1) A      2 (B1) B     
  0.0002405785       1 (B1) B      1 (A1) A    ->    2 (B1) B      4 (A1) A     
 -0.0001164351       1 (A1) A      1 (B1) A    ->    4 (A1) A      2 (B1) A     
  0.0001164351       1 (A1) A      1 (B1) A    ->    2 (B1) A      4 (A1) A     
  0.0001164351       1 (B1) A      1 (A1) A    ->    4 (A1) A      2 (B1) A     
 -0.0001164351       1 (B1) A      1 (A1) A    ->    2 (B1) A      4 (A1) A     
  0.0001164351       1 (A1) B      1 (B1) B    ->    4 (A1) B      2 (B1) B     
 -0.0001164351       1 (A1) B      1 (B1) B    ->    2 (B1) B      4 (A1) B     
 -0.0001164351       1 (B1) B      1 (A1) B    ->    4 (A1) B      2 (B1) B     
  0.0001164351       1 (B1) B      1 (A1) B    ->    2 (B1) B      4 (A1) B     
 -0.0000998991       1 (A1) A      2 (A1) B    ->    4 (A1) A      4 (A1) B     
  0.0000998991       2 (A1) A      1 (A1) B    ->    4 (A1) A      4 (A1) B     
  0.0000998991       1 (A1) A      2 (A1) B    ->    4 (A1) B      4 (A1) A     
 -0.0000998991       2 (A1) A      1 (A1) B    ->    4 (A1) B      4 (A1) A     
  0.0000998991       2 (A1) B      1 (A1) A    ->    4 (A1) A      4 (A1) B     
 -0.0000998991       1 (A1) B      2 (A1) A    ->    4 (A1) A      4 (A1) B     
[...]
  0.0008772061       2 (A1) A      1 (A1) B    ->    2 (B1) B      4 (A1) A     
  0.0008772061       1 (A1) B      2 (A1) A    ->    4 (A1) A      2 (B1) B     
 -0.0008772061       2 (A1) B      1 (A1) A    ->    2 (B1) A      4 (A1) B     
  0.0008772061       2 (A1) B      1 (A1) A    ->    4 (A1) B      2 (B1) A     
 -0.0008772061       1 (A1) B      2 (A1) A    ->    2 (B1) B      4 (A1) A     
 -0.0005533403       1 (A1) A      3 (A1) B    ->    4 (A1) A      2 (B1) B     
  0.0005533403       3 (A1) A      1 (A1) B    ->    2 (B1) A      4 (A1) B     
 -0.0005533403       3 (A1) A      1 (A1) B    ->    4 (A1) B      2 (B1) A     
  0.0005533403       1 (A1) A      3 (A1) B    ->    2 (B1) B      4 (A1) A     
  0.0005533403       3 (A1) B      1 (A1) A    ->    4 (A1) A      2 (B1) B     
 -0.0005533403       1 (A1) B      3 (A1) A    ->    2 (B1) A      4 (A1) B     
  0.0005533403       1 (A1) B      3 (A1) A    ->    4 (A1) B      2 (B1) A     
 -0.0005533403       3 (A1) B      1 (A1) A    ->    2 (B1) B      4 (A1) A     
  0.0005106747       1 (A1) A      2 (A1) A    ->    4 (A1) A      2 (B1) A     
 -0.0005106747       2 (A1) A      1 (A1) A    ->    4 (A1) A      2 (B1) A     
 -0.0005106747       1 (A1) A      2 (A1) A    ->    2 (B1) A      4 (A1) A     
  0.0005106747       2 (A1) A      1 (A1) A    ->    2 (B1) A      4 (A1) A     
 -0.0005106747       1 (A1) B      2 (A1) B    ->    4 (A1) B      2 (B1) B     
  0.0005106747       2 (A1) B      1 (A1) B    ->    4 (A1) B      2 (B1) B     
  0.0005106747       1 (A1) B      2 (A1) B    ->    2 (B1) B      4 (A1) B     
 -0.0005106747       2 (A1) B      1 (A1) B    ->    2 (B1) B      4 (A1) B     
 -0.0002878270       3 (A1) A      1 (A1) B    ->    4 (A1) A      2 (B1) B     
  0.0002878270       1 (A1) A      3 (A1) B    ->    2 (B1) A      4 (A1) B     
 -0.0002878270       1 (A1) A      3 (A1) B    ->    4 (A1) B      2 (B1) A     
  0.0002878270       3 (A1) A      1 (A1) B    ->    2 (B1) B      4 (A1) A     
  0.0002878270       1 (A1) B      3 (A1) A    ->    4 (A1) A      2 (B1) B     
 -0.0002878270       3 (A1) B      1 (A1) A    ->    2 (B1) A      4 (A1) B     
  0.0002878270       3 (A1) B      1 (A1) A    ->    4 (A1) B      2 (B1) A     
 -0.0002878270       1 (A1) B      3 (A1) A    ->    2 (B1) B      4 (A1) A     
 -0.0002838438       1 (A1) A      1 (B1) B    ->    4 (A1) A      4 (A1) B     
  0.0002838438       1 (A1) A      1 (B1) B    ->    4 (A1) B      4 (A1) A     
  0.0002838438       1 (B1) A      1 (A1) B    ->    4 (A1) A      4 (A1) B     
 -0.0002838438       1 (B1) A      1 (A1) B    ->    4 (A1) B      4 (A1) A     
 -0.0002838438       1 (A1) B      1 (B1) A    ->    4 (A1) A      4 (A1) B     
  0.0002838438       1 (A1) B      1 (B1) A    ->    4 (A1) B      4 (A1) A     
  0.0002838438       1 (B1) B      1 (A1) A    ->    4 (A1) A      4 (A1) B     
 -0.0002838438       1 (B1) B      1 (A1) A    ->    4 (A1) B      4 (A1) A     
  0.0002831301       1 (A1) A      1 (A1) B    ->    4 (A1) A      2 (B1) B     
 -0.0002831301       1 (A1) A      1 (A1) B    ->    2 (B1) A      4 (A1) B     
  0.0002831301       1 (A1) A      1 (A1) B    ->    4 (A1) B      2 (B1) A     
 -0.0002831301       1 (A1) A      1 (A1) B    ->    2 (B1) B      4 (A1) A     
 -0.0002831301       1 (A1) B      1 (A1) A    ->    4 (A1) A      2 (B1) B     
  0.0002831301       1 (A1) B      1 (A1) A    ->    2 (B1) A      4 (A1) B     
 -0.0002831301       1 (A1) B      1 (A1) A    ->    4 (A1) B      2 (B1) A     
  0.0002831301       1 (A1) B      1 (A1) A    ->    2 (B1) B      4 (A1) A     
 -0.0002652603       1 (A1) A      2 (A1) B    ->    4 (A1) A      2 (B1) B     
  0.0002652603       2 (A1) A      1 (A1) B    ->    2 (B1) A      4 (A1) B     
 -0.0002652603       2 (A1) A      1 (A1) B    ->    4 (A1) B      2 (B1) A     
  0.0002652603       1 (A1) A      2 (A1) B    ->    2 (B1) B      4 (A1) A     
  0.0002652603       2 (A1) B      1 (A1) A    ->    4 (A1) A      2 (B1) B     
 -0.0002652603       1 (A1) B      2 (A1) A    ->    2 (B1) A      4 (A1) B     
  0.0002652603       1 (A1) B      2 (A1) A    ->    4 (A1) B      2 (B1) A     
 -0.0002652603       2 (A1) B      1 (A1) A    ->    2 (B1) B      4 (A1) A     
 -0.0002578369       1 (A1) A      1 (B1) B    ->    2 (B1) A      2 (B1) B     
  0.0002578369       1 (A1) A      1 (B1) B    ->    2 (B1) B      2 (B1) A     
  0.0002578369       1 (B1) A      1 (A1) B    ->    2 (B1) A      2 (B1) B     
 -0.0002578369       1 (B1) A      1 (A1) B    ->    2 (B1) B      2 (B1) A     
 -0.0002578369       1 (A1) B      1 (B1) A    ->    2 (B1) A      2 (B1) B     
  0.0002578369       1 (A1) B      1 (B1) A    ->    2 (B1) B      2 (B1) A     
  0.0002578369       1 (B1) B      1 (A1) A    ->    2 (B1) A      2 (B1) B     
 -0.0002578369       1 (B1) B      1 (A1) A    ->    2 (B1) B      2 (B1) A     
 -0.0000994555       1 (A1) A      3 (A1) A    ->    4 (A1) A      2 (B1) A     
  0.0000994555       3 (A1) A      1 (A1) A    ->    4 (A1) A      2 (B1) A     
  0.0000994555       1 (A1) A      3 (A1) A    ->    2 (B1) A      4 (A1) A     
 -0.0000994555       3 (A1) A      1 (A1) A    ->    2 (B1) A      4 (A1) A     
  0.0000994555       1 (A1) B      3 (A1) B    ->    4 (A1) B      2 (B1) B     
 -0.0000994555       3 (A1) B      1 (A1) B    ->    4 (A1) B      2 (B1) B     
 -0.0000994555       1 (A1) B      3 (A1) B    ->    2 (B1) B      4 (A1) B     
  0.0000994555       3 (A1) B      1 (A1) B    ->    2 (B1) B      4 (A1) B     

              Summary of significant orbitals:

               Number  Type             Irrep      Energy
               1       Occ  Alpha       1 (A1)    -20.4790
               2       Occ  Alpha       2 (A1)     -1.6964
               4       Occ  Alpha       3 (A1)     -0.5890
               3       Occ  Alpha       1 (B1)     -0.9512
               5       Occ  Alpha       1 (B2)     -0.5526
               1       Occ  Beta        1 (A1)    -20.4790
               2       Occ  Beta        2 (A1)     -1.6964
               4       Occ  Beta        3 (A1)     -0.5890
               3       Occ  Beta        1 (B1)     -0.9512
               5       Occ  Beta        1 (B2)     -0.5526
               6       Vir  Alpha       4 (A1)      0.9901
               7       Vir  Alpha       2 (B1)      1.5156
               6       Vir  Beta        4 (A1)      0.9901
               7       Vir  Beta        2 (B1)      1.5156


 EEs and amplitudes of EOMEE has be exported to fchk file
Running a double precision version
      EOM-CCSD/MP2 left amplitudes will be solved using Davidson.
        Amplitudes will be solved using MOM  algorithm.
     Hard-coded thresholds: 
     LinDepThresh=1.00e-15  NormThresh=1.00e-06  ReorthogonThresh=1.00e-02

      Roots     MaxVec    MaxIter   Precond   Conv      Shift    
      1         120       60        1         1.00e-05  0.00e+00  
 ------------------------------------------------------------------------------
      Iter ConvRoots NVecs ResNorm Current eigenvalues (eV)
 ------------------------------------------------------------------------------
      0    0      1     3.94e-05   37.2790   
      1    0      2     9.49e-05   37.2790   
      2    1      3     1.04e-06   37.2790*  

     Davidson procedure converged

 Excited state properties for  EOMEE-CCSD transition 1/B1
 Dipole moment (a.u.): 0.132009 (X 0.000000, Y 0.000000, Z -0.132009)
 R-squared (a.u.): 16.342219 (XX 5.653000, YY 4.966368, ZZ 5.722852)
 Gauge origin (a.u.): (0.000000, 0.000000, 0.000000)
 Angular momentum (a.u.) against gauge origin: 
 (X 0.000000i, Y 0.000000i, Z 0.000000i)
 Traces of the OPDMs: Tr(AA) 5.000000, Tr(BB) 5.000000

        Solving for EOMEE-CCSD B2 triplet states.

Running a double precision version
        EOMEE-CCSD/MP2 right amplitudes will be solved using Davidson.
        Amplitudes will be solved using standard  algorithm.
     Hard-coded thresholds: 
     LinDepThresh=1.00e-15  NormThresh=1.00e-06  ReorthogonThresh=1.00e-02

      Roots     MaxVec    MaxIter   Precond   Conv      Shift    
      1         120       60        1         1.00e-05  0.00e+00  
 ------------------------------------------------------------------------------
      Iter ConvRoots NVecs ResNorm Current eigenvalues (eV)
 ------------------------------------------------------------------------------
      0    0      1     2.55e-02   26.7038   
      1    0      2     4.46e-02   26.4521   
      2    0      3     1.23e-05   26.3721   
      3    1      4     1.53e-06   26.3721*  

     Davidson procedure converged

 EOMEE transition 1/B2
 Total energy = -72.16846962 a.u.  Excitation energy = 26.37206500 eV.
 R0^2 = 0.0000  R1^2 = 0.9942  R2^2 = 0.0058  Res^2 = 1.53e-06
 Conv-d = yes

 Amplitude    Transitions between orbitals
 -0.7050430907       1 (B2) A                  ->    4 (A1) A                   
  0.7050430907       1 (B2) B                  ->    4 (A1) B                   
  0.0442617189       1 (B1) A      1 (B2) B    ->    2 (B1) A      4 (A1) B     
 -0.0442617189       1 (B1) A      1 (B2) B    ->    4 (A1) B      2 (B1) A     
 -0.0442617189       1 (B2) A      1 (B1) B    ->    4 (A1) A      2 (B1) B     
  0.0442617189       1 (B2) A      1 (B1) B    ->    2 (B1) B      4 (A1) A     
  0.0442617189       1 (B1) B      1 (B2) A    ->    4 (A1) A      2 (B1) B     
 -0.0442617189       1 (B1) B      1 (B2) A    ->    2 (B1) B      4 (A1) A     
 -0.0442617189       1 (B2) B      1 (B1) A    ->    2 (B1) A      4 (A1) B     
  0.0442617189       1 (B2) B      1 (B1) A    ->    4 (A1) B      2 (B1) A     
  0.0211024329       1 (B1) A      1 (B2) A    ->    4 (A1) A      2 (B1) A     
 -0.0211024329       1 (B1) A      1 (B2) A    ->    2 (B1) A      4 (A1) A     
 -0.0211024329       1 (B2) A      1 (B1) A    ->    4 (A1) A      2 (B1) A     
  0.0211024329       1 (B2) A      1 (B1) A    ->    2 (B1) A      4 (A1) A     
 -0.0211024329       1 (B1) B      1 (B2) B    ->    4 (A1) B      2 (B1) B     
  0.0211024329       1 (B1) B      1 (B2) B    ->    2 (B1) B      4 (A1) B     
  0.0211024329       1 (B2) B      1 (B1) B    ->    4 (A1) B      2 (B1) B     
 -0.0211024329       1 (B2) B      1 (B1) B    ->    2 (B1) B      4 (A1) B     
 -0.0140694749       3 (A1) A      1 (B2) B    ->    2 (B1) A      2 (B1) B     
  0.0140694749       3 (A1) A      1 (B2) B    ->    2 (B1) B      2 (B1) A     
  0.0140694749       1 (B2) A      3 (A1) B    ->    2 (B1) A      2 (B1) B     
 -0.0140694749       1 (B2) A      3 (A1) B    ->    2 (B1) B      2 (B1) A     
 -0.0140694749       3 (A1) B      1 (B2) A    ->    2 (B1) A      2 (B1) B     
  0.0140694749       3 (A1) B      1 (B2) A    ->    2 (B1) B      2 (B1) A     
  0.0140694749       1 (B2) B      3 (A1) A    ->    2 (B1) A      2 (B1) B     
 -0.0140694749       1 (B2) B      3 (A1) A    ->    2 (B1) B      2 (B1) A     
 -0.0104499381       3 (A1) A      1 (B2) B    ->    4 (A1) A      4 (A1) B     
  0.0104499381       3 (A1) A      1 (B2) B    ->    4 (A1) B      4 (A1) A     
  0.0104499381       1 (B2) A      3 (A1) B    ->    4 (A1) A      4 (A1) B     
 -0.0104499381       1 (B2) A      3 (A1) B    ->    4 (A1) B      4 (A1) A     
 -0.0104499381       3 (A1) B      1 (B2) A    ->    4 (A1) A      4 (A1) B     
  0.0104499381       3 (A1) B      1 (B2) A    ->    4 (A1) B      4 (A1) A     
  0.0104499381       1 (B2) B      3 (A1) A    ->    4 (A1) A      4 (A1) B     
 -0.0104499381       1 (B2) B      3 (A1) A    ->    4 (A1) B      4 (A1) A     
  0.0083426184       2 (A1) A      1 (B2) B    ->    2 (B1) A      2 (B1) B     
 -0.0083426184       2 (A1) A      1 (B2) B    ->    2 (B1) B      2 (B1) A     
 -0.0083426184       1 (B2) A      2 (A1) B    ->    2 (B1) A      2 (B1) B     
  0.0083426184       1 (B2) A      2 (A1) B    ->    2 (B1) B      2 (B1) A     
  0.0083426184       2 (A1) B      1 (B2) A    ->    2 (B1) A      2 (B1) B     
 -0.0083426184       2 (A1) B      1 (B2) A    ->    2 (B1) B      2 (B1) A     
 -0.0083426184       1 (B2) B      2 (A1) A    ->    2 (B1) A      2 (B1) B     
  0.0083426184       1 (B2) B      2 (A1) A    ->    2 (B1) B      2 (B1) A     
  0.0082493128       2 (A1) A      1 (B2) B    ->    4 (A1) A      4 (A1) B     
 -0.0082493128       2 (A1) A      1 (B2) B    ->    4 (A1) B      4 (A1) A     
 -0.0082493128       1 (B2) A      2 (A1) B    ->    4 (A1) A      4 (A1) B     
  0.0082493128       1 (B2) A      2 (A1) B    ->    4 (A1) B      4 (A1) A     
  0.0082493128       2 (A1) B      1 (B2) A    ->    4 (A1) A      4 (A1) B     
 -0.0082493128       2 (A1) B      1 (B2) A    ->    4 (A1) B      4 (A1) A     
 -0.0082493128       1 (B2) B      2 (A1) A    ->    4 (A1) A      4 (A1) B     
  0.0082493128       1 (B2) B      2 (A1) A    ->    4 (A1) B      4 (A1) A     
  0.0080091456       1 (B1) A      1 (B2) B    ->    4 (A1) A      2 (B1) B     
 -0.0080091456       1 (B1) A      1 (B2) B    ->    2 (B1) B      4 (A1) A     
 -0.0080091456       1 (B2) A      1 (B1) B    ->    2 (B1) A      4 (A1) B     
  0.0080091456       1 (B2) A      1 (B1) B    ->    4 (A1) B      2 (B1) A     
  0.0080091456       1 (B1) B      1 (B2) A    ->    2 (B1) A      4 (A1) B     
 -0.0080091456       1 (B1) B      1 (B2) A    ->    4 (A1) B      2 (B1) A     
 -0.0080091456       1 (B2) B      1 (B1) A    ->    4 (A1) A      2 (B1) B     
  0.0080091456       1 (B2) B      1 (B1) A    ->    2 (B1) B      4 (A1) A     
  0.0008723072       1 (A1) A      1 (B2) B    ->    4 (A1) A      4 (A1) B     
 -0.0008723072       1 (A1) A      1 (B2) B    ->    4 (A1) B      4 (A1) A     
 -0.0008723072       1 (B2) A      1 (A1) B    ->    4 (A1) A      4 (A1) B     
  0.0008723072       1 (B2) A      1 (A1) B    ->    4 (A1) B      4 (A1) A     
  0.0008723072       1 (A1) B      1 (B2) A    ->    4 (A1) A      4 (A1) B     
 -0.0008723072       1 (A1) B      1 (B2) A    ->    4 (A1) B      4 (A1) A     
 -0.0008723072       1 (B2) B      1 (A1) A    ->    4 (A1) A      4 (A1) B     
  0.0008723072       1 (B2) B      1 (A1) A    ->    4 (A1) B      4 (A1) A     
  0.0003446025       1 (A1) A      1 (B2) B    ->    2 (B1) A      2 (B1) B     
 -0.0003446025       1 (A1) A      1 (B2) B    ->    2 (B1) B      2 (B1) A     
 -0.0003446025       1 (B2) A      1 (A1) B    ->    2 (B1) A      2 (B1) B     
  0.0003446025       1 (B2) A      1 (A1) B    ->    2 (B1) B      2 (B1) A     
  0.0003446025       1 (A1) B      1 (B2) A    ->    2 (B1) A      2 (B1) B     
 -0.0003446025       1 (A1) B      1 (B2) A    ->    2 (B1) B      2 (B1) A     
 -0.0003446025       1 (B2) B      1 (A1) A    ->    2 (B1) A      2 (B1) B     
  0.0003446025       1 (B2) B      1 (A1) A    ->    2 (B1) B      2 (B1) A     

              Summary of significant orbitals:

               Number  Type             Irrep      Energy
               1       Occ  Alpha       1 (A1)    -20.4790
               2       Occ  Alpha       2 (A1)     -1.6964
               4       Occ  Alpha       3 (A1)     -0.5890
               3       Occ  Alpha       1 (B1)     -0.9512
               5       Occ  Alpha       1 (B2)     -0.5526
               1       Occ  Beta        1 (A1)    -20.4790
               2       Occ  Beta        2 (A1)     -1.6964
               4       Occ  Beta        3 (A1)     -0.5890
               3       Occ  Beta        1 (B1)     -0.9512
               5       Occ  Beta        1 (B2)     -0.5526
               6       Vir  Alpha       4 (A1)      0.9901
               7       Vir  Alpha       2 (B1)      1.5156
               6       Vir  Beta        4 (A1)      0.9901
               7       Vir  Beta        2 (B1)      1.5156


 EEs and amplitudes of EOMEE has be exported to fchk file
Running a double precision version
      EOM-CCSD/MP2 left amplitudes will be solved using Davidson.
        Amplitudes will be solved using MOM  algorithm.
     Hard-coded thresholds: 
     LinDepThresh=1.00e-15  NormThresh=1.00e-06  ReorthogonThresh=1.00e-02

      Roots     MaxVec    MaxIter   Precond   Conv      Shift    
      1         120       60        1         1.00e-05  0.00e+00  
 ------------------------------------------------------------------------------
      Iter ConvRoots NVecs ResNorm Current eigenvalues (eV)
 ------------------------------------------------------------------------------
      0    0      1     2.61e-05   26.3721   
      1    0      2     5.32e-05   26.3721   
      2    1      3     9.94e-08   26.3721*  

     Davidson procedure converged

 Excited state properties for  EOMEE-CCSD transition 1/B2
 Dipole moment (a.u.): 0.033169 (X 0.000000, Y 0.000000, Z -0.033169)
 R-squared (a.u.): 16.637382 (XX 6.409310, YY 4.423951, ZZ 5.804121)
 Gauge origin (a.u.): (0.000000, 0.000000, 0.000000)
 Angular momentum (a.u.) against gauge origin: 
 (X 0.000000i, Y 0.000000i, Z 0.000000i)
 Traces of the OPDMs: Tr(AA) 5.000000, Tr(BB) 5.000000

 EOMEE-CCSD calculation:   CPU 7.63 s  wall 2.56 s

 Total ccman2 time:   CPU 12.29 s  wall 3.48 s


 --------------------------------------------------------------
             Orbital Energies (a.u.) and Symmetries
 --------------------------------------------------------------

 Alpha MOs, Restricted
 -- Occupied --                  
-20.479  -1.696  -0.951  -0.589  -0.553
  1 A1    2 A1    1 B1    3 A1    1 B2                                         
 -- Virtual --                   
  0.990   1.516
  4 A1    2 B1                                                                 

 Beta MOs, Restricted
 -- Occupied --                  
-20.479  -1.696  -0.951  -0.589  -0.553
  1 A1    2 A1    1 B1    3 A1    1 B2                                         
 -- Virtual --                   
  0.990   1.516
  4 A1    2 B1                                                                 
 --------------------------------------------------------------

          Ground-State Mulliken Net Atomic Charges

     Atom                 Charge (a.u.)
  ----------------------------------------
      1 O                    -1.262395
      2 H                     0.631198
      3 H                     0.631198
  ----------------------------------------
  Sum of atomic charges =     0.000000

 -----------------------------------------------------------------
                    Cartesian Multipole Moments
 -----------------------------------------------------------------
    Charge (ESU x 10^10)
                -0.0000
    Dipole Moment (Debye)
         X      -0.0000      Y       0.0000      Z      -2.0111
       Tot       2.0111
    Quadrupole Moments (Debye-Ang)
        XX      -4.6856     XY       0.0000     YY      -5.5946
        XZ       0.0000     YZ       0.0000     ZZ      -5.1834
    Octopole Moments (Debye-Ang^2)
       XXX      -0.0000    XXY      -0.0000    XYY      -0.0000
       YYY      -0.0000    XXZ      -0.3528    XYZ      -0.0000
       YYZ      -0.2228    XZZ      -0.0000    YZZ      -0.0000
       ZZZ      -0.7748
    Hexadecapole Moments (Debye-Ang^3)
      XXXX      -3.3096   XXXY       0.0000   XXYY      -1.0143
      XYYY       0.0000   YYYY      -2.6778   XXXZ       0.0000
      XXYZ       0.0000   XYYZ       0.0000   YYYZ       0.0000
      XXZZ      -0.9955   XYZZ       0.0000   YYZZ      -0.9300
      XZZZ       0.0000   YZZZ       0.0000   ZZZZ      -2.8731
 -----------------------------------------------------------------
 Total job time:  4.85s(wall), 14.45s(cpu) 
 Sun Sep  4 11:48:16 2022

        *************************************************************
        *                                                           *
        *  Thank you very much for using Q-Chem.  Have a nice day.  *
        *                                                           *
        *************************************************************


