Jobname.Temp
SP        R                             6-31G               
Number of atoms                            I                2
Charge                                     I                0
Multiplicity                               I                1
Number of electrons                        I                2
Number of alpha electrons                  I                1
Number of beta electrons                   I                1
Atomic numbers                             I   N=           2
           1           1
Current cartesian coordinates              R   N=           6
  0.00000000E+00  0.00000000E+00 -5.66917837E-01  0.00000000E+00  0.00000000E+00
  5.66917837E-01
Nuclear charges                            R   N=           2
  1.00000000E+00  1.00000000E+00
Number of basis functions                  I                4
Number of contracted shells                I                4
Number of primitive shells                 I                8
Highest angular momentum                   I                0
Largest degree of contraction              I                3
Shell types                                I   N=           4
           0           0           0           0
Number of primitives per shell             I   N=           4
           3           1           3           1
Shell to atom map                          I   N=           4
           1           1           2           2
Primitive exponents                        R   N=           8
  1.87311370E+01  2.82539370E+00  6.40121700E-01  1.61277800E-01  1.87311370E+01
  2.82539370E+00  6.40121700E-01  1.61277800E-01
Contraction coefficients                   R   N=           8
  3.34945995E-02  2.34726947E-01  8.13757318E-01  1.00000000E+00  3.34945995E-02
  2.34726947E-01  8.13757318E-01  1.00000000E+00
Coordinates of each shell                  R   N=          12
  0.00000000E+00  0.00000000E+00 -5.66917837E-01  0.00000000E+00  0.00000000E+00
 -5.66917837E-01  0.00000000E+00  0.00000000E+00  5.66917837E-01  0.00000000E+00
  0.00000000E+00  5.66917837E-01
Overlap Matrix                             R   N=          10
  1.00000000E+00  6.58292049E-01  1.00000000E+00  5.86956813E-01  5.55915594E-01
  1.00000000E+00  5.55915594E-01  9.01524530E-01  6.58292049E-01  1.00000000E+00
Core Hamiltonian Matrix                    R   N=          10
 -1.09818810E+00 -9.84915829E-01 -9.61218824E-01 -1.04098126E+00 -8.88578530E-01
 -1.09818810E+00 -8.88578530E-01 -9.13748382E-01 -9.84915829E-01 -9.61218824E-01
Orbital Coefficients CCMAN2 Alpha          R   N=          16
 -3.50123848E-01 -2.35367212E-01 -3.50123848E-01 -2.35367212E-01 -9.45597877E-02
 -2.14881836E+00  9.45597877E-02  2.14881836E+00  7.02464553E-01 -6.77298970E-01
  7.02464553E-01 -6.77298970E-01 -1.27349445E+00  1.49079632E+00  1.27349445E+00
 -1.49079632E+00
Orbital Coefficients CCMAN2 Beta           R   N=          16
 -9.45597877E-02 -2.14881836E+00  9.45597877E-02  2.14881836E+00  7.02464553E-01
 -6.77298970E-01  7.02464553E-01 -6.77298970E-01 -1.27349445E+00  1.49079632E+00
  1.27349445E+00 -1.49079632E+00 -3.50123848E-01 -2.35367212E-01 -3.50123848E-01
 -2.35367212E-01
EOMEE transition A Excitation Energies     R   N=           3
  6.08817450E-01  1.03021584E+00  1.30869848E+00
Number of Active Occ                       I                2
Number of Active Vir                       I                6
Alpha Amplitudes                           R   N=           4
 -6.97235965E-01 -6.97235965E-01 -6.97515988E-01 -6.97515988E-01
Alpha J Indexes                            I   N=           4
           0           2           4           4
Alpha I Indexes                            I   N=           4
           0           9           1          10
EOMEE transition A Excitation Energies     R   N=           3
  4.78478529E-01  8.26544760E-01  1.55805924E+00
Number of Active Occ                       I                2
Number of Active Vir                       I                6
Alpha Amplitudes                           R   N=           6
  6.97560619E-01 -6.97560619E-01  7.06508963E-01 -7.06508963E-01 -1.85271889E-01
  1.85271889E-01
Alpha J Indexes                            I   N=           4
           0           2           4           6
Alpha I Indexes                            I   N=           6
           0           9           1          10           2          11
Number of independent functions            I                4
Alpha MO coefficients                      R   N=          16
 -3.50123848E-01 -2.35367212E-01 -3.50123848E-01 -2.35367212E-01 -9.45597877E-02
 -2.14881836E+00  9.45597877E-02  2.14881836E+00  7.02464553E-01 -6.77298970E-01
  7.02464553E-01 -6.77298970E-01 -1.27349445E+00  1.49079632E+00  1.27349445E+00
 -1.49079632E+00
Alpha Orbital Energies                     R   N=           4
 -6.42226367E-01  2.74446411E-01  7.10774624E-01  1.63038929E+00
Total SCF Density                          R   N=          10
  2.59410239E-01  1.67848606E-01  1.18786472E-01  2.35654918E-01  1.51834975E-01
  2.59410239E-01  1.51834975E-01  1.03915491E-01  1.67848606E-01  1.18786472E-01
Pure Switching                             I                1
Dipole_Data                                R   N=           3
  0.00000000E+00  0.00000000E+00  1.22088965E-14
Quadrupole_Data                            R   N=           6
 -1.81844798E+00  0.00000000E+00 -1.81844798E+00  0.00000000E+00  0.00000000E+00
 -1.54290992E+00
Octapole_Data                              R   N=          10
  0.00000000E+00  0.00000000E+00  0.00000000E+00  0.00000000E+00  5.07712468E-15
  0.00000000E+00  5.07712468E-15  0.00000000E+00  0.00000000E+00  1.66148304E-14
Hexadecapole_Data                          R   N=          15
 -1.56104606E+00  0.00000000E+00 -5.20348686E-01  0.00000000E+00 -1.56104606E+00
  0.00000000E+00  0.00000000E+00  0.00000000E+00  0.00000000E+00 -6.23613142E-01
  0.00000000E+00 -6.23613142E-01  0.00000000E+00  0.00000000E+00 -2.15232282E+00
