                  Welcome to Q-Chem
     A Quantum Leap Into The Future Of Chemistry


 Q-Chem 5.4 (devel), Q-Chem, Inc., Pleasanton, CA (2021)

 E. Epifanovsky,  A. T. B. Gilbert,  Xintian Feng,  Joonho Lee,  Yuezhi Mao,  
 N. Mardirossian,  P. Pokhilko,  A. White,  M. Wormit,  M. P. Coons,  
 A. L. Dempwolff,  Zhengting Gan,  D. Hait,  P. R. Horn,  L. D. Jacobson,  
 I. Kaliman,  J. Kussmann,  A. W. Lange,  Ka Un Lao,  D. S. Levine,  Jie Liu,  
 S. C. McKenzie,  A. F. Morrison,  K. Nanda,  F. Plasser,  D. R. Rehn,  
 M. L. Vidal,  Zhi-Qiang You,  Ying Zhu,  B. Alam,  B. Albrecht,  
 A. Aldossary,  E. Alguire,  J. H. Andersen,  D. Barton,  K. Begam,  A. Behn,  
 Y. A. Bernard,  E. J. Berquist,  H. Burton,  A. Carreras,  K. Carter-Fenk,  
 R. Chakraborty,  A. D. Chien,  K. D. Closser,  V. Cofer-Shabica,  
 S. Dasgupta,  Jia Deng,  M. de Wergifosse,  M. Diedenhofen,  Hainam Do,  
 S. Ehlert,  Po-Tung Fang,  S. Fatehi,  Qingguo Feng,  T. Friedhoff,  
 J. Gayvert,  Qinghui Ge,  G. Gidofalvi,  M. Goldey,  J. Gomes,  
 C. Gonzalez-Espinoza,  S. Gulania,  A. Gunina,  M. W. D. Hanson-Heine,  
 P. H. P. Harbach,  A. W. Hauser,  M. F. Herbst,  M. Hernandez Vera,  
 M. Hodecker,  Z. C. Holden,  S. Houck,  Xunkun Huang,  Kerwin Hui,  
 B. C. Huynh,  M. Ivanov,  Hyunjun Ji,  Hanjie Jiang,  B. Kaduk,  S. Kaehler,  
 K. Khistyaev,  Jaehoon Kim,  P. Klunzinger,  Z. Koczor-Benda,  
 Joong Hoon Koh,  D. Kosenkov,  L. Koulias,  T. Kowalczyk,  C. M. Krauter,  
 K. Kue,  A. Kunitsa,  T. Kus,  A. Landau,  K. V. Lawler,  D. Lefrancois,  
 S. Lehtola,  Rain Li,  Yi-Pei Li,  Jiashu Liang,  M. Liebenthal,  
 Hung-Hsuan Lin,  You-Sheng Lin,  Fenglai Liu,  Kuan-Yu Liu,  
 M. Loipersberger,  A. Luenser,  A. Manjanath,  P. Manohar,  E. Mansoor,  
 S. F. Manzer,  Shan-Ping Mao,  A. V. Marenich,  T. Markovich,  S. Mason,  
 S. A. Maurer,  P. F. McLaughlin,  M. F. S. J. Menger,  J.-M. Mewes,  
 S. A. Mewes,  P. Morgante,  J. W. Mullinax,  K. J. Oosterbaan,  G. Paran,  
 Alexander C. Paul,  Suranjan K. Paul,  F. Pavosevic,  Zheng Pei,  S. Prager,  
 E. I. Proynov,  E. Ramos,  B. Rana,  A. E. Rask,  A. Rettig,  R. M. Richard,  
 F. Rob,  E. Rossomme,  T. Scheele,  M. Scheurer,  M. Schneider,  
 N. Sergueev,  S. M. Sharada,  W. Skomorowski,  D. W. Small,  C. J. Stein,  
 Yu-Chuan Su,  E. J. Sundstrom,  Zhen Tao,  J. Thirman,  T. Tsuchimochi,  
 N. M. Tubman,  S. P. Veccham,  O. Vydrov,  J. Wenzel,  J. Witte,  A. Yamada,  
 Kun Yao,  S. Yeganeh,  S. R. Yost,  A. Zech,  Igor Ying Zhang,  Xing Zhang,  
 Yu Zhang,  D. Zuev,  A. Aspuru-Guzik,  A. T. Bell,  N. A. Besley,  
 K. B. Bravaya,  B. R. Brooks,  D. Casanova,  Jeng-Da Chai,  S. Coriani,  
 C. J. Cramer,  A. E. DePrince, III,  R. A. DiStasio Jr.,  A. Dreuw,  
 B. D. Dunietz,  T. R. Furlani,  W. A. Goddard III,  S. Grimme,  
 S. Hammes-Schiffer,  T. Head-Gordon,  W. J. Hehre,  Chao-Ping Hsu,  
 T.-C. Jagau,  Yousung Jung,  A. Klamt,  Jing Kong,  D. S. Lambrecht,  
 WanZhen Liang,  N. J. Mayhall,  C. W. McCurdy,  J. B. Neaton,  
 C. Ochsenfeld,  J. A. Parkhill,  R. Peverati,  V. A. Rassolov,  Yihan Shao,  
 L. V. Slipchenko,  T. Stauch,  R. P. Steele,  J. E. Subotnik,  
 A. J. W. Thom,  A. Tkatchenko,  D. G. Truhlar,  T. Van Voorhis,  
 T. A. Wesolowski,  K. B. Whaley,  H. L. Woodcock III,  P. M. Zimmerman,  
 S. Faraji,  P. M. W. Gill,  M. Head-Gordon,  J. M. Herbert,  A. I. Krylov

 Additional authors for Version 5.4.1: 
 S. Kotaru,  Shaozhi Li,  Xiangyuan Li,  F. Matz,  A. Molle,  Haisheng Ren,  
 Yingli Su,  Hung-Yi Tsai,  C. Utku,  Fang Wang

 Contributors to earlier versions of Q-Chem not listed above: 
 R. D. Adamson,  B. Austin,  R. Baer,  J. Baker,  G. J. O. Beran,  
 K. Brandhorst,  S. T. Brown,  E. F. C. Byrd,  A. K. Chakraborty,  
 G. K. L. Chan,  Chun-Min Chang,  Yunqing Chen,  C.-L. Cheng,  
 Siu Hung Chien,  D. M. Chipman,  D. L. Crittenden,  H. Dachsel,  
 R. J. Doerksen,  A. D. Dutoi,  R. G. Edgar,  J. Fosso-Tande,  
 L. Fusti-Molnar,  D. Ghosh,  A. Ghysels,  A. Golubeva-Zadorozhnaya,  
 J. Gonthier,  M. S. Gordon,  S. R. Gwaltney,  G. Hawkins,  J. E. Herr,  
 A. Heyden,  S. Hirata,  E. G. Hohenstein,  G. Kedziora,  F. J. Keil,  
 C. Kelley,  Jihan Kim,  R. A. King,  R. Z. Khaliullin,  P. P. Korambath,  
 W. Kurlancheek,  A. Laurent,  A. M. Lee,  M. S. Lee,  S. V. Levchenko,  
 Ching Yeh Lin,  D. Liotard,  E. Livshits,  R. C. Lochan,  I. Lotan,  
 L. A. Martinez-Martinez,  P. E. Maslen,  N. Nair,  D. P. O'Neill,  
 D. Neuhauser,  E. Neuscamman,  C. M. Oana,  R. Olivares-Amaya,  R. Olson,  
 T. M. Perrine,  B. Peters,  P. A. Pieniazek,  A. Prociuk,  Y. M. Rhee,  
 J. Ritchie,  M. A. Rohrdanz,  E. Rosta,  N. J. Russ,  H. F. Schaefer III,  
 M. W. Schmidt,  N. E. Schultz,  S. Sharma,  N. Shenvi,  C. D. Sherrill,  
 A. C. Simmonett,  A. Sodt,  T. Stein,  D. Stuck,  K. S. Thanthiriwatte,  
 V. Vanovschi,  L. Vogt,  Tao Wang,  A. Warshel,  M. A. Watson,  
 C. F. Williams,  Q. Wu,  X. Xu,  Jun Yang,  W. Zhang,  Yan Zhao

 Please cite Q-Chem as follows:
 Y. Shao et al., Mol. Phys. 113, 184-215 (2015)
 DOI: 10.1080/00268976.2014.952696

 Q-Chem 5.4.1 for Intel X86 EM64T Linux

 Parts of Q-Chem use Armadillo 9.900.5 (Nocturnal Misbehaviour).
 http://arma.sourceforge.net/

 Q-Chem begins on Thu Aug 11 11:20:33 2022  

orc23
 Host: 0

     Scratch files written to /scratch/yongbin/qchem8906//
 Processing $rem in /home/users/yongbin/software/yongbin_quantum/config/preferences:
 Processing $rem in /home/users/yongbin/.qchemrc:
 Core orbitals will be frozen

 Checking the input file for inconsistencies... 	...done.

--------------------------------------------------------------
User input:
--------------------------------------------------------------
$comment
Hydrogen molecule
$end

$molecule
0 1
H 0.0 0.0 0.0
H 0.0 0.0 0.6
$end

$rem
   print_qis = true
   BASIS                = 6-31g 
   SYMMETRY             = false
   CC_SYMMETRY          = false
   METHOD               = eom-ccsd
   EE_SINGLETS          = [3]  ! Compute two EOM-EE singlet excited states
   EE_TRIPLETS          = [3]  ! Compute two EOM-EE triplet excited states
   CC_REF_PROP          = true ! Compute ground state properties
   CC_EOM_PROP          = true ! Compute excited state properties
!   CC_OSFNO             = true
   GUI                  = 2
$end
--------------------------------------------------------------
 ----------------------------------------------------------------
             Standard Nuclear Orientation (Angstroms)
    I     Atom           X                Y                Z
 ----------------------------------------------------------------
    1      H       0.0000000000     0.0000000000    -0.3000000000
    2      H       0.0000000000     0.0000000000     0.3000000000
 ----------------------------------------------------------------
 Molecular Point Group                 D*h   NOp =***
 Largest Abelian Subgroup              D2h   NOp =  1
 Nuclear Repulsion Energy =           0.88196202 hartrees
 There are        1 alpha and        1 beta electrons
 Requested basis set is 6-31G
 There are 4 shells and 4 basis functions
 Total memory of 2000 MB is distributed as follows: 
   MEM_STATIC is set to 192 MB
   QALLOC/CCMAN JOB total memory use is  1808 MB
 Warning: actual memory use might exceed 2000 MB

 Total QAlloc Memory Limit   2000 MB
 Mega-Array Size       188 MB
 MEM_STATIC part       192 MB

                       Distance Matrix (Angstroms)
             H (  1)
   H (  2)  0.600000

 A cutoff of  1.0D-14 yielded     10 shell pairs
 There are        10 function pairs
 Smallest overlap matrix eigenvalue = 6.81E-02

 Scale SEOQF with 1.000000e+00/1.000000e+00/1.000000e+00

 Standard Electronic Orientation quadrupole field applied
 Nucleus-field energy     =    -0.0000000002 hartrees
 Guess from superposition of atomic densities
 Warning:  Energy on first SCF cycle will be non-variational
 SAD guess density has 2.000000 electrons

 -----------------------------------------------------------------------
  General SCF calculation program by
  Eric Jon Sundstrom, Paul Horn, Yuezhi Mao, Dmitri Zuev, Alec White,
  David Stuck, Shaama M.S., Shane Yost, Joonho Lee, David Small,
  Daniel Levine, Susi Lehtola, Hugh Burton, Evgeny Epifanovsky,
  Bang C. Huynh
 -----------------------------------------------------------------------
 Hartree-Fock
 using 12 threads for integral computing
 -------------------------------------------------------
 OpenMP Integral computing Module                
 Release: version 1.0, May 2013, Q-Chem Inc. Pittsburgh 
 -------------------------------------------------------
 A restricted SCF calculation will be
 performed using DIIS
 SCF converges when DIIS error is below 1.0e-08
 ---------------------------------------
  Cycle       Energy         DIIS error
 ---------------------------------------
    1      -0.8356195640      1.27e-01  
    2      -1.1084644232      2.13e-02  
    3      -1.1100307375      2.13e-04  
    4      -1.1100308953      4.16e-07  
    5      -1.1100308953      8.03e-10  Convergence criterion met
 ---------------------------------------
 SCF time:   CPU 0.54s  wall 1.00s 
 SCF   energy in the final basis set =       -1.1100308953
 Total energy in the final basis set =       -1.1100308953


 ------------------------------------------------------------------------------

   CCMAN2: suite of methods based on coupled cluster
           and equation of motion theories.

   Components:
   * libvmm-1.3-trunk
     by Evgeny Epifanovsky, Ilya Kaliman.
   * libtensor-2.5-trunk
     by Evgeny Epifanovsky, Michael Wormit, Dmitry Zuev, Sam Manzer, 
        Ilya Kaliman.
   * libcc-2.5-trunk
     by Evgeny Epifanovsky, Arik Landau, Tomasz Kus, Kirill Khistyaev, 
        Dmitry Zuev, Prashant Manohar, Xintian Feng, Anna Krylov, 
        Matthew Goldey, Alec White, Thomas Jagau, Kaushik Nanda, 
        Anastasia Gunina, Alexander Kunitsa, Joonho Lee.

   CCMAN original authors:
   Anna I. Krylov, C. David Sherrill, Steven R. Gwaltney,
   Edward F. C. Byrd (2000)
   Sergey V. Levchenko, Lyudmila V. Slipchenko, Tao Wang,
   Ana-Maria C. Cristian (2003)
   Piotr A. Pieniazek, C. Melania Oana, Evgeny Epifanovsky (2007)
   Prashant Manohar (2009)

 ------------------------------------------------------------------------------


 Allocating and initializing 1808MB of RAM...
 Calculation will run on 12 cores.


 Occupation and symmetry of molecular orbitals

 Point group: C1 (1 irreducible representation).

                           A     All 
 -------------------------------------
 All molecular orbitals:
  - Alpha                  4     4   
  - Beta                   4     4   
 -------------------------------------
 Alpha orbitals:
  - Frozen occupied        0     0   
  - Active occupied        1     1   
  - Active virtual         3     3   
  - Frozen virtual         0     0   
 -------------------------------------
 Beta orbitals:
  - Frozen occupied        0     0   
  - Active occupied        1     1   
  - Active virtual         3     3   
  - Frozen virtual         0     0   
 -------------------------------------

 Import integrals:   CPU 0.00 s  wall 0.00 s

 Import integrals:   CPU 0.08 s  wall 0.04 s

 Run QIS:   CPU 0.00 s  wall 0.01 s

 MP2 amplitudes:   CPU 0.00 s  wall 0.00 s

Running a double precision version
           CCSD T amplitudes will be solved using DIIS.

           Start     Size      MaxIter   EConv     TConv     
           3         7         100       1.00e-06  1.00e-04  
 ------------------------------------------------------------------------------
           Energy (a.u.)   Ediff      Tdiff       Comment
 ------------------------------------------------------------------------------
            -1.12586286                           
     1      -1.13019227   4.33e-03   1.03e-01     
     2      -1.13142018   1.23e-03   2.91e-02     
     3      -1.13178529   3.65e-04   8.82e-03     
     4      -1.13195300   1.68e-04   4.09e-03     Switched to DIIS steps.
     5      -1.13195346   4.63e-07   2.83e-04     
     6      -1.13195347   3.12e-09   1.09e-05     
 ------------------------------------------------------------------------------
            -1.13195347                           CCSD T converged.

End of double precision
 SCF energy                 = -1.11003090
 MP2 energy                 = -1.12586286
 CCSD correlation energy    = -0.02192257
 CCSD total energy          = -1.13195347

 CCSD  T1^2 = 0.0000  T2^2 = 0.0105  Leading amplitudes:

 Amplitude    Orbitals with energies
 -0.0019717396       1 (A) A                   ->    3 (A) A                    
                    -0.6422                          0.7108                     
 -0.0019717396       1 (A) B                   ->    3 (A) B                    
                    -0.6422                          0.7108                     

 Amplitude    Orbitals with energies
 -0.0563338259       1 (A) A       1 (A) B     ->    3 (A) A       3 (A) B      
                    -0.6422       -0.6422            0.7108        0.7108       
  0.0563338259       1 (A) A       1 (A) B     ->    3 (A) B       3 (A) A      
                    -0.6422       -0.6422            0.7108        0.7108       
  0.0563338259       1 (A) B       1 (A) A     ->    3 (A) A       3 (A) B      
                    -0.6422       -0.6422            0.7108        0.7108       
 -0.0563338259       1 (A) B       1 (A) A     ->    3 (A) B       3 (A) A      
                    -0.6422       -0.6422            0.7108        0.7108       

 Computing CCSD intermediates for later calculations in double precision
 Finished.

Running a double precision version
           CCSD Lambda amplitudes will be solved using DIIS.
           Start     Size      MaxIter   EConv     LConv     
           3         7         100       1.00e-06  1.00e-04  
 ------------------------------------------------------------------------------
            Enorm      Ldiff       Comment
 ------------------------------------------------------------------------------
     1     1.54e-03   1.53e-03     
     2     4.32e-04   4.27e-04     
     3     1.34e-04   1.27e-04     
     4     1.18e-05   5.63e-05     Switched to DIIS steps.
     5     6.32e-07   2.43e-06     
 ------------------------------------------------------------------------------
                                   CCSD Lambda converged.

 Computing density matrices in double precision...
 Computing density matrices... Done.
 Reference state properties
 Dipole moment (a.u.): 0.000000 (X -0.000000, Y -0.000000, Z 0.000000)
 R-squared (a.u.): 4.493850 (XX 1.351972, YY 1.351972, ZZ 1.789907)
 Gauge origin (a.u.): (0.000000, 0.000000, 0.000000)
 Angular momentum (a.u.) against gauge origin: 
 (X 0.000000i, Y 0.000000i, Z 0.000000i)
 Traces of the OPDMs: Tr(AA) 1.000000, Tr(BB) 1.000000
 Density matrix was written to a file for further analysis.

 CCSD calculation:   CPU 0.80 s  wall 0.47 s

        Solving for EOMEE-CCSD A singlet states.

Running a double precision version
        EOMEE-CCSD/MP2 right amplitudes will be solved using Davidson.
        Amplitudes will be solved using standard  algorithm.
     Hard-coded thresholds: 
     LinDepThresh=1.00e-15  NormThresh=1.00e-06  ReorthogonThresh=1.00e-02

      Roots     MaxVec    MaxIter   Precond   Conv      Shift    
      3         120       60        1         1.00e-05  0.00e+00  
 ------------------------------------------------------------------------------
      Iter ConvRoots NVecs ResNorm Current eigenvalues (eV)
 ------------------------------------------------------------------------------
      0    0      3     3.85e-02   17.4005   28.8268   51.0292   
      1    2      6     2.16e-03   16.5668*  28.1961   43.0349*  
      2    2      7     8.93e-05   16.5668*  28.0448   43.0349*  
      3    1      8     3.97e-02   16.5668*  28.0351   42.2384   
      4    3      9     1.16e-30   16.5668*  28.0336*  35.6115*  

     Davidson procedure converged

 EOMEE transition 1/A
 Total energy = -0.52313602 a.u.  Excitation energy = 16.56676536 eV.
 R0^2 = 0.0000  R1^2 = 0.9727  R2^2 = 0.0273  Res^2 = 9.65e-31
 Conv-d = yes

 Amplitude    Transitions between orbitals
 -0.6972359654       1 (A) A                   ->    2 (A) A                    
 -0.6972359654       1 (A) B                   ->    2 (A) B                    
  0.0143759094       1 (A) A                   ->    4 (A) A                    
  0.0143759094       1 (A) B                   ->    4 (A) B                    
  0.1158793237       1 (A) A       1 (A) B     ->    2 (A) A       3 (A) B      
  0.1158793237       1 (A) A       1 (A) B     ->    3 (A) A       2 (A) B      
 -0.1158793237       1 (A) A       1 (A) B     ->    3 (A) B       2 (A) A      
 -0.1158793237       1 (A) A       1 (A) B     ->    2 (A) B       3 (A) A      
 -0.1158793237       1 (A) B       1 (A) A     ->    2 (A) A       3 (A) B      
 -0.1158793237       1 (A) B       1 (A) A     ->    3 (A) A       2 (A) B      
  0.1158793237       1 (A) B       1 (A) A     ->    2 (A) B       3 (A) A      
  0.1158793237       1 (A) B       1 (A) A     ->    3 (A) B       2 (A) A      
 -0.0150772723       1 (A) A       1 (A) B     ->    3 (A) A       4 (A) B      
 -0.0150772723       1 (A) A       1 (A) B     ->    4 (A) A       3 (A) B      
  0.0150772723       1 (A) A       1 (A) B     ->    4 (A) B       3 (A) A      
  0.0150772723       1 (A) A       1 (A) B     ->    3 (A) B       4 (A) A      
  0.0150772723       1 (A) B       1 (A) A     ->    3 (A) A       4 (A) B      
  0.0150772723       1 (A) B       1 (A) A     ->    4 (A) A       3 (A) B      
 -0.0150772723       1 (A) B       1 (A) A     ->    3 (A) B       4 (A) A      
 -0.0150772723       1 (A) B       1 (A) A     ->    4 (A) B       3 (A) A      

              Summary of significant orbitals:

               Number  Type             Irrep      Energy
               1       Occ  Alpha       1 (A)     -0.6422
               1       Occ  Beta        1 (A)     -0.6422
               2       Vir  Alpha       2 (A)      0.2744
               3       Vir  Alpha       3 (A)      0.7108
               4       Vir  Alpha       4 (A)      1.6304
               2       Vir  Beta        2 (A)      0.2744
               3       Vir  Beta        3 (A)      0.7108
               4       Vir  Beta        4 (A)      1.6304


 EOMEE transition 2/A
 Total energy = -0.10173762 a.u.  Excitation energy = 28.03359880 eV.
 R0^2 = 0.0000  R1^2 = 0.9731  R2^2 = 0.0269  Res^2 = 8.75e-31
 Conv-d = yes

 Amplitude    Transitions between orbitals
 -0.6975159878       1 (A) A                   ->    3 (A) A                    
 -0.6975159878       1 (A) B                   ->    3 (A) B                    
  0.1048295113       1 (A) A       1 (A) B     ->    3 (A) A       3 (A) B      
 -0.1048295113       1 (A) A       1 (A) B     ->    3 (A) B       3 (A) A      
 -0.1048295113       1 (A) B       1 (A) A     ->    3 (A) A       3 (A) B      
  0.1048295113       1 (A) B       1 (A) A     ->    3 (A) B       3 (A) A      
  0.0951400163       1 (A) A       1 (A) B     ->    2 (A) A       2 (A) B      
 -0.0951400163       1 (A) A       1 (A) B     ->    2 (A) B       2 (A) A      
 -0.0951400163       1 (A) B       1 (A) A     ->    2 (A) A       2 (A) B      
  0.0951400163       1 (A) B       1 (A) A     ->    2 (A) B       2 (A) A      
 -0.0735141924       1 (A) A       1 (A) B     ->    4 (A) A       4 (A) B      
  0.0735141924       1 (A) A       1 (A) B     ->    4 (A) B       4 (A) A      
  0.0735141924       1 (A) B       1 (A) A     ->    4 (A) A       4 (A) B      
 -0.0735141924       1 (A) B       1 (A) A     ->    4 (A) B       4 (A) A      
 -0.0273651949       1 (A) A       1 (A) B     ->    2 (A) A       4 (A) B      
 -0.0273651949       1 (A) A       1 (A) B     ->    4 (A) A       2 (A) B      
  0.0273651949       1 (A) A       1 (A) B     ->    4 (A) B       2 (A) A      
  0.0273651949       1 (A) A       1 (A) B     ->    2 (A) B       4 (A) A      
  0.0273651949       1 (A) B       1 (A) A     ->    2 (A) A       4 (A) B      
  0.0273651949       1 (A) B       1 (A) A     ->    4 (A) A       2 (A) B      
 -0.0273651949       1 (A) B       1 (A) A     ->    2 (A) B       4 (A) A      
 -0.0273651949       1 (A) B       1 (A) A     ->    4 (A) B       2 (A) A      

              Summary of significant orbitals:

               Number  Type             Irrep      Energy
               1       Occ  Alpha       1 (A)     -0.6422
               1       Occ  Beta        1 (A)     -0.6422
               2       Vir  Alpha       2 (A)      0.2744
               3       Vir  Alpha       3 (A)      0.7108
               4       Vir  Alpha       4 (A)      1.6304
               2       Vir  Beta        2 (A)      0.2744
               3       Vir  Beta        3 (A)      0.7108
               4       Vir  Beta        4 (A)      1.6304


 EOMEE transition 3/A
 Total energy = 0.17674501 a.u.  Excitation energy = 35.61149663 eV.
 R0^2 = 0.0034  R1^2 = 0.0060  R2^2 = 0.9940  Res^2 = 1.64e-30
 Conv-d = yes

 Amplitude    Transitions between orbitals
 -0.0545979755       1 (A) A                   ->    3 (A) A                    
 -0.0545979755       1 (A) B                   ->    3 (A) B                    
 -0.9693187246       1 (A) A       1 (A) B     ->    2 (A) A       2 (A) B      
  0.9693187246       1 (A) A       1 (A) B     ->    2 (A) B       2 (A) A      
  0.9693187246       1 (A) B       1 (A) A     ->    2 (A) A       2 (A) B      
 -0.9693187246       1 (A) B       1 (A) A     ->    2 (A) B       2 (A) A      
 -0.1559269293       1 (A) A       1 (A) B     ->    2 (A) A       4 (A) B      
 -0.1559269293       1 (A) A       1 (A) B     ->    4 (A) A       2 (A) B      
  0.1559269293       1 (A) A       1 (A) B     ->    4 (A) B       2 (A) A      
  0.1559269293       1 (A) A       1 (A) B     ->    2 (A) B       4 (A) A      
  0.1559269293       1 (A) B       1 (A) A     ->    2 (A) A       4 (A) B      
  0.1559269293       1 (A) B       1 (A) A     ->    4 (A) A       2 (A) B      
 -0.1559269293       1 (A) B       1 (A) A     ->    2 (A) B       4 (A) A      
 -0.1559269293       1 (A) B       1 (A) A     ->    4 (A) B       2 (A) A      
  0.0755578295       1 (A) A       1 (A) B     ->    3 (A) A       3 (A) B      
 -0.0755578295       1 (A) A       1 (A) B     ->    3 (A) B       3 (A) A      
 -0.0755578295       1 (A) B       1 (A) A     ->    3 (A) A       3 (A) B      
  0.0755578295       1 (A) B       1 (A) A     ->    3 (A) B       3 (A) A      
  0.0111324841       1 (A) A       1 (A) B     ->    4 (A) A       4 (A) B      
 -0.0111324841       1 (A) A       1 (A) B     ->    4 (A) B       4 (A) A      
 -0.0111324841       1 (A) B       1 (A) A     ->    4 (A) A       4 (A) B      
  0.0111324841       1 (A) B       1 (A) A     ->    4 (A) B       4 (A) A      

              Summary of significant orbitals:

               Number  Type             Irrep      Energy
               1       Occ  Alpha       1 (A)     -0.6422
               1       Occ  Beta        1 (A)     -0.6422
               2       Vir  Alpha       2 (A)      0.2744
               3       Vir  Alpha       3 (A)      0.7108
               4       Vir  Alpha       4 (A)      1.6304
               2       Vir  Beta        2 (A)      0.2744
               3       Vir  Beta        3 (A)      0.7108
               4       Vir  Beta        4 (A)      1.6304


 EEs and amplitudes of EOMEE has be exported to fchk file
Running a double precision version
      EOM-CCSD/MP2 left amplitudes will be solved using Davidson.
        Amplitudes will be solved using MOM  algorithm.
     Hard-coded thresholds: 
     LinDepThresh=1.00e-15  NormThresh=1.00e-06  ReorthogonThresh=1.00e-02

      Roots     MaxVec    MaxIter   Precond   Conv      Shift    
      3         120       60        1         1.00e-05  0.00e+00  
 ------------------------------------------------------------------------------
      Iter ConvRoots NVecs ResNorm Current eigenvalues (eV)
 ------------------------------------------------------------------------------
      0    2      3     1.82e-05   16.5668*  28.0336*  35.6115   
      1    3      4     4.72e-06   16.5668*  28.0336*  35.6115*  

     Davidson procedure converged

 Excited state properties for  EOMEE-CCSD transition 1/A
 Dipole moment (a.u.): 0.000000 (X -0.000000, Y -0.000000, Z 0.000000)
 R-squared (a.u.): 9.176882 (XX 1.938445, YY 1.938445, ZZ 5.299993)
 Gauge origin (a.u.): (0.000000, 0.000000, 0.000000)
 Angular momentum (a.u.) against gauge origin: 
 (X 0.000000i, Y 0.000000i, Z 0.000000i)
 Traces of the OPDMs: Tr(AA) 1.000000, Tr(BB) 1.000000

 Excited state properties for  EOMEE-CCSD transition 2/A
 Dipole moment (a.u.): 0.000000 (X -0.000000, Y -0.000000, Z 0.000000)
 R-squared (a.u.): 7.318462 (XX 2.311705, YY 2.311705, ZZ 2.695053)
 Gauge origin (a.u.): (0.000000, 0.000000, 0.000000)
 Angular momentum (a.u.) against gauge origin: 
 (X 0.000000i, Y 0.000000i, Z 0.000000i)
 Traces of the OPDMs: Tr(AA) 1.000000, Tr(BB) 1.000000

 Excited state properties for  EOMEE-CCSD transition 3/A
 Dipole moment (a.u.): 0.000000 (X -0.000000, Y -0.000000, Z 0.000000)
 R-squared (a.u.): 12.711526 (XX 2.485870, YY 2.485870, ZZ 7.739786)
 Gauge origin (a.u.): (0.000000, 0.000000, 0.000000)
 Angular momentum (a.u.) against gauge origin: 
 (X 0.000000i, Y 0.000000i, Z 0.000000i)
 Traces of the OPDMs: Tr(AA) 1.000000, Tr(BB) 1.000000

        Solving for EOMEE-CCSD A triplet states.

Running a double precision version
        EOMEE-CCSD/MP2 right amplitudes will be solved using Davidson.
        Amplitudes will be solved using standard  algorithm.
     Hard-coded thresholds: 
     LinDepThresh=1.00e-15  NormThresh=1.00e-06  ReorthogonThresh=1.00e-02

      Roots     MaxVec    MaxIter   Precond   Conv      Shift    
      3         120       60        1         1.00e-05  0.00e+00  
 ------------------------------------------------------------------------------
      Iter ConvRoots NVecs ResNorm Current eigenvalues (eV)
 ------------------------------------------------------------------------------
      0    0      3     8.92e-03   13.3631   22.5552   43.2504   
      1    3      6     6.06e-31   13.0201*  22.4914*  42.3969*  

     Davidson procedure converged

 EOMEE transition 1/A
 Total energy = -0.65347494 a.u.  Excitation energy = 13.02006294 eV.
 R0^2 = 0.0000  R1^2 = 0.9893  R2^2 = 0.0107  Res^2 = 1.36e-32
 Conv-d = yes

 Amplitude    Transitions between orbitals
  0.6975606189       1 (A) A                   ->    2 (A) A                    
 -0.6975606189       1 (A) B                   ->    2 (A) B                    
  0.0898307378       1 (A) A                   ->    4 (A) A                    
 -0.0898307378       1 (A) B                   ->    4 (A) B                    
 -0.0720263083       1 (A) A       1 (A) B     ->    2 (A) A       3 (A) B      
  0.0720263083       1 (A) A       1 (A) B     ->    3 (A) A       2 (A) B      
  0.0720263083       1 (A) A       1 (A) B     ->    3 (A) B       2 (A) A      
 -0.0720263083       1 (A) A       1 (A) B     ->    2 (A) B       3 (A) A      
  0.0720263083       1 (A) B       1 (A) A     ->    2 (A) A       3 (A) B      
 -0.0720263083       1 (A) B       1 (A) A     ->    3 (A) A       2 (A) B      
  0.0720263083       1 (A) B       1 (A) A     ->    2 (A) B       3 (A) A      
 -0.0720263083       1 (A) B       1 (A) A     ->    3 (A) B       2 (A) A      
 -0.0123220296       1 (A) A       1 (A) B     ->    3 (A) A       4 (A) B      
  0.0123220296       1 (A) A       1 (A) B     ->    4 (A) A       3 (A) B      
  0.0123220296       1 (A) A       1 (A) B     ->    4 (A) B       3 (A) A      
 -0.0123220296       1 (A) A       1 (A) B     ->    3 (A) B       4 (A) A      
  0.0123220296       1 (A) B       1 (A) A     ->    3 (A) A       4 (A) B      
 -0.0123220296       1 (A) B       1 (A) A     ->    4 (A) A       3 (A) B      
  0.0123220296       1 (A) B       1 (A) A     ->    3 (A) B       4 (A) A      
 -0.0123220296       1 (A) B       1 (A) A     ->    4 (A) B       3 (A) A      

              Summary of significant orbitals:

               Number  Type             Irrep      Energy
               1       Occ  Alpha       1 (A)     -0.6422
               1       Occ  Beta        1 (A)     -0.6422
               2       Vir  Alpha       2 (A)      0.2744
               3       Vir  Alpha       3 (A)      0.7108
               4       Vir  Alpha       4 (A)      1.6304
               2       Vir  Beta        2 (A)      0.2744
               3       Vir  Beta        3 (A)      0.7108
               4       Vir  Beta        4 (A)      1.6304


 EOMEE transition 2/A
 Total energy = -0.30540871 a.u.  Excitation energy = 22.49142678 eV.
 R0^2 = 0.0000  R1^2 = 0.9983  R2^2 = 0.0017  Res^2 = 1.39e-30
 Conv-d = yes

 Amplitude    Transitions between orbitals
  0.7065089634       1 (A) A                   ->    3 (A) A                    
 -0.7065089634       1 (A) B                   ->    3 (A) B                    
 -0.0290703394       1 (A) A       1 (A) B     ->    2 (A) A       4 (A) B      
  0.0290703394       1 (A) A       1 (A) B     ->    4 (A) A       2 (A) B      
  0.0290703394       1 (A) A       1 (A) B     ->    4 (A) B       2 (A) A      
 -0.0290703394       1 (A) A       1 (A) B     ->    2 (A) B       4 (A) A      
  0.0290703394       1 (A) B       1 (A) A     ->    2 (A) A       4 (A) B      
 -0.0290703394       1 (A) B       1 (A) A     ->    4 (A) A       2 (A) B      
  0.0290703394       1 (A) B       1 (A) A     ->    2 (A) B       4 (A) A      
 -0.0290703394       1 (A) B       1 (A) A     ->    4 (A) B       2 (A) A      

              Summary of significant orbitals:

               Number  Type             Irrep      Energy
               1       Occ  Alpha       1 (A)     -0.6422
               1       Occ  Beta        1 (A)     -0.6422
               2       Vir  Alpha       2 (A)      0.2744
               3       Vir  Alpha       3 (A)      0.7108
               4       Vir  Alpha       4 (A)      1.6304
               2       Vir  Beta        2 (A)      0.2744
               3       Vir  Beta        3 (A)      0.7108
               4       Vir  Beta        4 (A)      1.6304


 EOMEE transition 3/A
 Total energy = 0.42610578 a.u.  Excitation energy = 42.39694817 eV.
 R0^2 = 0.0000  R1^2 = 0.0729  R2^2 = 0.9271  Res^2 = 4.12e-31
 Conv-d = yes

 Amplitude    Transitions between orbitals
 -0.1852718889       1 (A) A                   ->    4 (A) A                    
  0.1852718889       1 (A) B                   ->    4 (A) B                    
 -0.0462843603       1 (A) A                   ->    2 (A) A                    
  0.0462843603       1 (A) B                   ->    2 (A) B                    
 -0.6775956700       1 (A) A       1 (A) B     ->    2 (A) A       3 (A) B      
  0.6775956700       1 (A) A       1 (A) B     ->    3 (A) A       2 (A) B      
  0.6775956700       1 (A) A       1 (A) B     ->    3 (A) B       2 (A) A      
 -0.6775956700       1 (A) A       1 (A) B     ->    2 (A) B       3 (A) A      
  0.6775956700       1 (A) B       1 (A) A     ->    2 (A) A       3 (A) B      
 -0.6775956700       1 (A) B       1 (A) A     ->    3 (A) A       2 (A) B      
  0.6775956700       1 (A) B       1 (A) A     ->    2 (A) B       3 (A) A      
 -0.6775956700       1 (A) B       1 (A) A     ->    3 (A) B       2 (A) A      
  0.0663037941       1 (A) A       1 (A) B     ->    3 (A) A       4 (A) B      
 -0.0663037941       1 (A) A       1 (A) B     ->    4 (A) A       3 (A) B      
 -0.0663037941       1 (A) A       1 (A) B     ->    4 (A) B       3 (A) A      
  0.0663037941       1 (A) A       1 (A) B     ->    3 (A) B       4 (A) A      
 -0.0663037941       1 (A) B       1 (A) A     ->    3 (A) A       4 (A) B      
  0.0663037941       1 (A) B       1 (A) A     ->    4 (A) A       3 (A) B      
 -0.0663037941       1 (A) B       1 (A) A     ->    3 (A) B       4 (A) A      
  0.0663037941       1 (A) B       1 (A) A     ->    4 (A) B       3 (A) A      

              Summary of significant orbitals:

               Number  Type             Irrep      Energy
               1       Occ  Alpha       1 (A)     -0.6422
               1       Occ  Beta        1 (A)     -0.6422
               2       Vir  Alpha       2 (A)      0.2744
               3       Vir  Alpha       3 (A)      0.7108
               4       Vir  Alpha       4 (A)      1.6304
               2       Vir  Beta        2 (A)      0.2744
               3       Vir  Beta        3 (A)      0.7108
               4       Vir  Beta        4 (A)      1.6304


 EEs and amplitudes of EOMEE has be exported to fchk file
Running a double precision version
      EOM-CCSD/MP2 left amplitudes will be solved using Davidson.
        Amplitudes will be solved using MOM  algorithm.
     Hard-coded thresholds: 
     LinDepThresh=1.00e-15  NormThresh=1.00e-06  ReorthogonThresh=1.00e-02

      Roots     MaxVec    MaxIter   Precond   Conv      Shift    
      3         120       60        1         1.00e-05  0.00e+00  
 ------------------------------------------------------------------------------
      Iter ConvRoots NVecs ResNorm Current eigenvalues (eV)
 ------------------------------------------------------------------------------
      0    3      3     1.41e-07   13.0201*  22.4914*  42.3969*  

     Davidson procedure converged

 Excited state properties for  EOMEE-CCSD transition 1/A
 Dipole moment (a.u.): 0.000000 (X -0.000000, Y -0.000000, Z 0.000000)
 R-squared (a.u.): 8.404872 (XX 1.814136, YY 1.814136, ZZ 4.776600)
 Gauge origin (a.u.): (0.000000, 0.000000, 0.000000)
 Angular momentum (a.u.) against gauge origin: 
 (X 0.000000i, Y 0.000000i, Z 0.000000i)
 Traces of the OPDMs: Tr(AA) 1.000000, Tr(BB) 1.000000

 Excited state properties for  EOMEE-CCSD transition 2/A
 Dipole moment (a.u.): 0.000000 (X -0.000000, Y -0.000000, Z 0.000000)
 R-squared (a.u.): 7.940588 (XX 2.543716, YY 2.543716, ZZ 2.853156)
 Gauge origin (a.u.): (0.000000, 0.000000, 0.000000)
 Angular momentum (a.u.) against gauge origin: 
 (X 0.000000i, Y 0.000000i, Z 0.000000i)
 Traces of the OPDMs: Tr(AA) 1.000000, Tr(BB) 1.000000

 Excited state properties for  EOMEE-CCSD transition 3/A
 Dipole moment (a.u.): 0.000000 (X -0.000000, Y -0.000000, Z 0.000000)
 R-squared (a.u.): 12.295724 (XX 3.172841, YY 3.172841, ZZ 5.950043)
 Gauge origin (a.u.): (0.000000, 0.000000, 0.000000)
 Angular momentum (a.u.) against gauge origin: 
 (X 0.000000i, Y 0.000000i, Z 0.000000i)
 Traces of the OPDMs: Tr(AA) 1.000000, Tr(BB) 1.000000

 EOMEE-CCSD calculation:   CPU 1.74 s  wall 1.22 s

 Total ccman2 time:   CPU 2.77 s  wall 1.82 s


 --------------------------------------------------------------

                    Orbital Energies (a.u.)
 --------------------------------------------------------------

 Alpha MOs
 -- Occupied --
 -0.6422
 -- Virtual --
  0.2744   0.7108   1.6304
 --------------------------------------------------------------

          Ground-State Mulliken Net Atomic Charges

     Atom                 Charge (a.u.)
  ----------------------------------------
      1 H                    -0.000000
      2 H                     0.000000
  ----------------------------------------
  Sum of atomic charges =     0.000000

 -----------------------------------------------------------------
                    Cartesian Multipole Moments
 -----------------------------------------------------------------
    Charge (ESU x 10^10)
                 0.0000
    Dipole Moment (Debye)
         X       0.0000      Y       0.0000      Z       0.0000
       Tot       0.0000
    Quadrupole Moments (Debye-Ang)
        XX      -1.8184     XY       0.0000     YY      -1.8184
        XZ       0.0000     YZ       0.0000     ZZ      -1.5429
    Octopole Moments (Debye-Ang^2)
       XXX       0.0000    XXY       0.0000    XYY       0.0000
       YYY       0.0000    XXZ       0.0000    XYZ       0.0000
       YYZ       0.0000    XZZ       0.0000    YZZ       0.0000
       ZZZ       0.0000
    Hexadecapole Moments (Debye-Ang^3)
      XXXX      -1.5610   XXXY       0.0000   XXYY      -0.5203
      XYYY       0.0000   YYYY      -1.5610   XXXZ       0.0000
      XXYZ       0.0000   XYYZ       0.0000   YYYZ       0.0000
      XXZZ      -0.6236   XYZZ       0.0000   YYZZ      -0.6236
      XZZZ       0.0000   YZZZ       0.0000   ZZZZ      -2.1523
 -----------------------------------------------------------------
 Total job time:  3.08s(wall), 4.16s(cpu) 
 Thu Aug 11 11:20:36 2022

        *************************************************************
        *                                                           *
        *  Thank you very much for using Q-Chem.  Have a nice day.  *
        *                                                           *
        *************************************************************


