                  Welcome to Q-Chem
     A Quantum Leap Into The Future Of Chemistry


 Q-Chem 5.4 (devel), Q-Chem, Inc., Pleasanton, CA (2021)

 E. Epifanovsky,  A. T. B. Gilbert,  Xintian Feng,  Joonho Lee,  Yuezhi Mao,  
 N. Mardirossian,  P. Pokhilko,  A. White,  M. Wormit,  M. P. Coons,  
 A. L. Dempwolff,  Zhengting Gan,  D. Hait,  P. R. Horn,  L. D. Jacobson,  
 I. Kaliman,  J. Kussmann,  A. W. Lange,  Ka Un Lao,  D. S. Levine,  Jie Liu,  
 S. C. McKenzie,  A. F. Morrison,  K. Nanda,  F. Plasser,  D. R. Rehn,  
 M. L. Vidal,  Zhi-Qiang You,  Ying Zhu,  B. Alam,  B. Albrecht,  
 A. Aldossary,  E. Alguire,  J. H. Andersen,  D. Barton,  K. Begam,  A. Behn,  
 Y. A. Bernard,  E. J. Berquist,  H. Burton,  A. Carreras,  K. Carter-Fenk,  
 R. Chakraborty,  A. D. Chien,  K. D. Closser,  V. Cofer-Shabica,  
 S. Dasgupta,  Jia Deng,  M. de Wergifosse,  M. Diedenhofen,  Hainam Do,  
 S. Ehlert,  Po-Tung Fang,  S. Fatehi,  Qingguo Feng,  T. Friedhoff,  
 J. Gayvert,  Qinghui Ge,  G. Gidofalvi,  M. Goldey,  J. Gomes,  
 C. Gonzalez-Espinoza,  S. Gulania,  A. Gunina,  M. W. D. Hanson-Heine,  
 P. H. P. Harbach,  A. W. Hauser,  M. F. Herbst,  M. Hernandez Vera,  
 M. Hodecker,  Z. C. Holden,  S. Houck,  Xunkun Huang,  Kerwin Hui,  
 B. C. Huynh,  M. Ivanov,  Hyunjun Ji,  Hanjie Jiang,  B. Kaduk,  S. Kaehler,  
 K. Khistyaev,  Jaehoon Kim,  P. Klunzinger,  Z. Koczor-Benda,  
 Joong Hoon Koh,  D. Kosenkov,  L. Koulias,  T. Kowalczyk,  C. M. Krauter,  
 K. Kue,  A. Kunitsa,  T. Kus,  A. Landau,  K. V. Lawler,  D. Lefrancois,  
 S. Lehtola,  Rain Li,  Yi-Pei Li,  Jiashu Liang,  M. Liebenthal,  
 Hung-Hsuan Lin,  You-Sheng Lin,  Fenglai Liu,  Kuan-Yu Liu,  
 M. Loipersberger,  A. Luenser,  A. Manjanath,  P. Manohar,  E. Mansoor,  
 S. F. Manzer,  Shan-Ping Mao,  A. V. Marenich,  T. Markovich,  S. Mason,  
 S. A. Maurer,  P. F. McLaughlin,  M. F. S. J. Menger,  J.-M. Mewes,  
 S. A. Mewes,  P. Morgante,  J. W. Mullinax,  K. J. Oosterbaan,  G. Paran,  
 Alexander C. Paul,  Suranjan K. Paul,  F. Pavosevic,  Zheng Pei,  S. Prager,  
 E. I. Proynov,  E. Ramos,  B. Rana,  A. E. Rask,  A. Rettig,  R. M. Richard,  
 F. Rob,  E. Rossomme,  T. Scheele,  M. Scheurer,  M. Schneider,  
 N. Sergueev,  S. M. Sharada,  W. Skomorowski,  D. W. Small,  C. J. Stein,  
 Yu-Chuan Su,  E. J. Sundstrom,  Zhen Tao,  J. Thirman,  T. Tsuchimochi,  
 N. M. Tubman,  S. P. Veccham,  O. Vydrov,  J. Wenzel,  J. Witte,  A. Yamada,  
 Kun Yao,  S. Yeganeh,  S. R. Yost,  A. Zech,  Igor Ying Zhang,  Xing Zhang,  
 Yu Zhang,  D. Zuev,  A. Aspuru-Guzik,  A. T. Bell,  N. A. Besley,  
 K. B. Bravaya,  B. R. Brooks,  D. Casanova,  Jeng-Da Chai,  S. Coriani,  
 C. J. Cramer,  A. E. DePrince, III,  R. A. DiStasio Jr.,  A. Dreuw,  
 B. D. Dunietz,  T. R. Furlani,  W. A. Goddard III,  S. Grimme,  
 S. Hammes-Schiffer,  T. Head-Gordon,  W. J. Hehre,  Chao-Ping Hsu,  
 T.-C. Jagau,  Yousung Jung,  A. Klamt,  Jing Kong,  D. S. Lambrecht,  
 WanZhen Liang,  N. J. Mayhall,  C. W. McCurdy,  J. B. Neaton,  
 C. Ochsenfeld,  J. A. Parkhill,  R. Peverati,  V. A. Rassolov,  Yihan Shao,  
 L. V. Slipchenko,  T. Stauch,  R. P. Steele,  J. E. Subotnik,  
 A. J. W. Thom,  A. Tkatchenko,  D. G. Truhlar,  T. Van Voorhis,  
 T. A. Wesolowski,  K. B. Whaley,  H. L. Woodcock III,  P. M. Zimmerman,  
 S. Faraji,  P. M. W. Gill,  M. Head-Gordon,  J. M. Herbert,  A. I. Krylov

 Additional authors for Version 5.4.1: 
 S. Kotaru,  Shaozhi Li,  Xiangyuan Li,  F. Matz,  A. Molle,  Haisheng Ren,  
 Yingli Su,  Hung-Yi Tsai,  C. Utku,  Fang Wang

 Contributors to earlier versions of Q-Chem not listed above: 
 R. D. Adamson,  B. Austin,  R. Baer,  J. Baker,  G. J. O. Beran,  
 K. Brandhorst,  S. T. Brown,  E. F. C. Byrd,  A. K. Chakraborty,  
 G. K. L. Chan,  Chun-Min Chang,  Yunqing Chen,  C.-L. Cheng,  
 Siu Hung Chien,  D. M. Chipman,  D. L. Crittenden,  H. Dachsel,  
 R. J. Doerksen,  A. D. Dutoi,  R. G. Edgar,  J. Fosso-Tande,  
 L. Fusti-Molnar,  D. Ghosh,  A. Ghysels,  A. Golubeva-Zadorozhnaya,  
 J. Gonthier,  M. S. Gordon,  S. R. Gwaltney,  G. Hawkins,  J. E. Herr,  
 A. Heyden,  S. Hirata,  E. G. Hohenstein,  G. Kedziora,  F. J. Keil,  
 C. Kelley,  Jihan Kim,  R. A. King,  R. Z. Khaliullin,  P. P. Korambath,  
 W. Kurlancheek,  A. Laurent,  A. M. Lee,  M. S. Lee,  S. V. Levchenko,  
 Ching Yeh Lin,  D. Liotard,  E. Livshits,  R. C. Lochan,  I. Lotan,  
 L. A. Martinez-Martinez,  P. E. Maslen,  N. Nair,  D. P. O'Neill,  
 D. Neuhauser,  E. Neuscamman,  C. M. Oana,  R. Olivares-Amaya,  R. Olson,  
 T. M. Perrine,  B. Peters,  P. A. Pieniazek,  A. Prociuk,  Y. M. Rhee,  
 J. Ritchie,  M. A. Rohrdanz,  E. Rosta,  N. J. Russ,  H. F. Schaefer III,  
 M. W. Schmidt,  N. E. Schultz,  S. Sharma,  N. Shenvi,  C. D. Sherrill,  
 A. C. Simmonett,  A. Sodt,  T. Stein,  D. Stuck,  K. S. Thanthiriwatte,  
 V. Vanovschi,  L. Vogt,  Tao Wang,  A. Warshel,  M. A. Watson,  
 C. F. Williams,  Q. Wu,  X. Xu,  Jun Yang,  W. Zhang,  Yan Zhao

 Please cite Q-Chem as follows:
 Y. Shao et al., Mol. Phys. 113, 184-215 (2015)
 DOI: 10.1080/00268976.2014.952696

 Q-Chem 5.4.1 for Intel X86 EM64T Linux

 Parts of Q-Chem use Armadillo 9.900.5 (Nocturnal Misbehaviour).
 http://arma.sourceforge.net/

 Q-Chem begins on Thu Aug 11 11:25:24 2022  

orc34
 Host: 0

     Scratch files written to /scratch/yongbin/qchem48591//
 Processing $rem in /home/users/yongbin/software/yongbin_quantum/config/preferences:
 Processing $rem in /home/users/yongbin/.qchemrc:
 Core orbitals will be frozen

 Checking the input file for inconsistencies... 	...done.

--------------------------------------------------------------
User input:
--------------------------------------------------------------
$comment
Hydrogen molecule
$end

$molecule
0 1
H 0.0 0.0 0.0
H 0.0 0.0 1.5
$end

$rem
   print_qis = true
   BASIS                = 6-31g 
   SYMMETRY             = false
   CC_SYMMETRY          = false
   METHOD               = eom-ccsd
   EE_SINGLETS          = [3]  ! Compute two EOM-EE singlet excited states
   EE_TRIPLETS          = [3]  ! Compute two EOM-EE triplet excited states
   CC_REF_PROP          = true ! Compute ground state properties
   CC_EOM_PROP          = true ! Compute excited state properties
!   CC_OSFNO             = true
   GUI                  = 2
$end
--------------------------------------------------------------
 ----------------------------------------------------------------
             Standard Nuclear Orientation (Angstroms)
    I     Atom           X                Y                Z
 ----------------------------------------------------------------
    1      H       0.0000000000     0.0000000000    -0.7500000000
    2      H       0.0000000000     0.0000000000     0.7500000000
 ----------------------------------------------------------------
 Molecular Point Group                 D*h   NOp =***
 Largest Abelian Subgroup              D2h   NOp =  1
 Nuclear Repulsion Energy =           0.35278481 hartrees
 There are        1 alpha and        1 beta electrons
 Requested basis set is 6-31G
 There are 4 shells and 4 basis functions
 Total memory of 2000 MB is distributed as follows: 
   MEM_STATIC is set to 192 MB
   QALLOC/CCMAN JOB total memory use is  1808 MB
 Warning: actual memory use might exceed 2000 MB

 Total QAlloc Memory Limit   2000 MB
 Mega-Array Size       188 MB
 MEM_STATIC part       192 MB

                       Distance Matrix (Angstroms)
             H (  1)
   H (  2)  1.500000

 A cutoff of  1.0D-14 yielded     10 shell pairs
 There are        10 function pairs
 Smallest overlap matrix eigenvalue = 2.22E-01

 Scale SEOQF with 1.000000e+00/1.000000e+00/1.000000e+00

 Standard Electronic Orientation quadrupole field applied
 Nucleus-field energy     =    -0.0000000012 hartrees
 Guess from superposition of atomic densities
 Warning:  Energy on first SCF cycle will be non-variational
 SAD guess density has 2.000000 electrons

 -----------------------------------------------------------------------
  General SCF calculation program by
  Eric Jon Sundstrom, Paul Horn, Yuezhi Mao, Dmitri Zuev, Alec White,
  David Stuck, Shaama M.S., Shane Yost, Joonho Lee, David Small,
  Daniel Levine, Susi Lehtola, Hugh Burton, Evgeny Epifanovsky,
  Bang C. Huynh
 -----------------------------------------------------------------------
 Hartree-Fock
 using 16 threads for integral computing
 -------------------------------------------------------
 OpenMP Integral computing Module                
 Release: version 1.0, May 2013, Q-Chem Inc. Pittsburgh 
 -------------------------------------------------------
 A restricted SCF calculation will be
 performed using DIIS
 SCF converges when DIIS error is below 1.0e-08
 ---------------------------------------
  Cycle       Energy         DIIS error
 ---------------------------------------
    1      -0.7264474471      3.95e-02  
    2      -0.9974666379      3.09e-03  
    3      -0.9974961871      5.88e-04  
    4      -0.9974972946      5.94e-08  
    5      -0.9974972946      1.14e-12  Convergence criterion met
 ---------------------------------------
 SCF time:   CPU 0.55s  wall 0.00s 
 SCF   energy in the final basis set =       -0.9974972946
 Total energy in the final basis set =       -0.9974972946


 ------------------------------------------------------------------------------

   CCMAN2: suite of methods based on coupled cluster
           and equation of motion theories.

   Components:
   * libvmm-1.3-trunk
     by Evgeny Epifanovsky, Ilya Kaliman.
   * libtensor-2.5-trunk
     by Evgeny Epifanovsky, Michael Wormit, Dmitry Zuev, Sam Manzer, 
        Ilya Kaliman.
   * libcc-2.5-trunk
     by Evgeny Epifanovsky, Arik Landau, Tomasz Kus, Kirill Khistyaev, 
        Dmitry Zuev, Prashant Manohar, Xintian Feng, Anna Krylov, 
        Matthew Goldey, Alec White, Thomas Jagau, Kaushik Nanda, 
        Anastasia Gunina, Alexander Kunitsa, Joonho Lee.

   CCMAN original authors:
   Anna I. Krylov, C. David Sherrill, Steven R. Gwaltney,
   Edward F. C. Byrd (2000)
   Sergey V. Levchenko, Lyudmila V. Slipchenko, Tao Wang,
   Ana-Maria C. Cristian (2003)
   Piotr A. Pieniazek, C. Melania Oana, Evgeny Epifanovsky (2007)
   Prashant Manohar (2009)

 ------------------------------------------------------------------------------


 Allocating and initializing 1808MB of RAM...
 Calculation will run on 16 cores.


 Occupation and symmetry of molecular orbitals

 Point group: C1 (1 irreducible representation).

                           A     All 
 -------------------------------------
 All molecular orbitals:
  - Alpha                  4     4   
  - Beta                   4     4   
 -------------------------------------
 Alpha orbitals:
  - Frozen occupied        0     0   
  - Active occupied        1     1   
  - Active virtual         3     3   
  - Frozen virtual         0     0   
 -------------------------------------
 Beta orbitals:
  - Frozen occupied        0     0   
  - Active occupied        1     1   
  - Active virtual         3     3   
  - Frozen virtual         0     0   
 -------------------------------------

 Import integrals:   CPU 0.00 s  wall 0.00 s

 Import integrals:   CPU 0.10 s  wall 0.04 s

 Run QIS:   CPU 0.00 s  wall 0.01 s

 MP2 amplitudes:   CPU 0.00 s  wall 0.00 s

Running a double precision version
           CCSD T amplitudes will be solved using DIIS.

           Start     Size      MaxIter   EConv     TConv     
           3         7         100       1.00e-06  1.00e-04  
 ------------------------------------------------------------------------------
           Energy (a.u.)   Ediff      Tdiff       Comment
 ------------------------------------------------------------------------------
            -1.02719280                           
     1      -1.04006904   1.29e-02   1.54e-01     
     2      -1.04684102   6.77e-03   7.34e-02     
     3      -1.05043123   3.59e-03   4.10e-02     
     4      -1.05443191   4.00e-03   4.54e-02     Switched to DIIS steps.
     5      -1.05430171   1.30e-04   8.18e-04     
     6      -1.05435401   5.23e-05   4.58e-04     
     7      -1.05434787   6.13e-06   8.46e-05     
     8      -1.05434748   3.96e-07   5.04e-06     
 ------------------------------------------------------------------------------
            -1.05434748                           CCSD T converged.

End of double precision
 SCF energy                 = -0.99749729
 MP2 energy                 = -1.02719280
 CCSD correlation energy    = -0.05685018
 CCSD total energy          = -1.05434748

 CCSD  T1^2 = 0.0019  T2^2 = 0.1064  Leading amplitudes:

 Amplitude    Orbitals with energies
 0.0310298220       1 (A) A                   ->    4 (A) A                    
                   -0.4371                          1.0492                     
 0.0310298220       1 (A) B                   ->    4 (A) B                    
                   -0.4371                          1.0492                     

 Amplitude    Orbitals with energies
 -0.3098201452       1 (A) A       1 (A) B     ->    2 (A) A       2 (A) B      
                    -0.4371       -0.4371            0.0528        0.0528       
  0.3098201452       1 (A) A       1 (A) B     ->    2 (A) B       2 (A) A      
                    -0.4371       -0.4371            0.0528        0.0528       
  0.3098201452       1 (A) B       1 (A) A     ->    2 (A) A       2 (A) B      
                    -0.4371       -0.4371            0.0528        0.0528       
 -0.3098201452       1 (A) B       1 (A) A     ->    2 (A) B       2 (A) A      
                    -0.4371       -0.4371            0.0528        0.0528       

 Computing CCSD intermediates for later calculations in double precision
 Finished.

Running a double precision version
           CCSD Lambda amplitudes will be solved using DIIS.
           Start     Size      MaxIter   EConv     LConv     
           3         7         100       1.00e-06  1.00e-04  
 ------------------------------------------------------------------------------
            Enorm      Ldiff       Comment
 ------------------------------------------------------------------------------
     1     3.44e-02   3.38e-02     
     2     1.49e-02   1.47e-02     
     3     7.66e-03   7.51e-03     
     4     2.40e-04   7.89e-03     Switched to DIIS steps.
     5     1.43e-05   1.13e-04     
     6     1.43e-06   9.84e-06     
     7     1.12e-07   2.82e-07     
 ------------------------------------------------------------------------------
                                   CCSD Lambda converged.

 Computing density matrices in double precision...
 Computing density matrices... Done.
 Reference state properties
 Dipole moment (a.u.): 0.000000 (X -0.000000, Y -0.000000, Z 0.000000)
 R-squared (a.u.): 9.217685 (XX 1.952534, YY 1.952534, ZZ 5.312617)
 Gauge origin (a.u.): (0.000000, 0.000000, 0.000000)
 Angular momentum (a.u.) against gauge origin: 
 (X 0.000000i, Y 0.000000i, Z 0.000000i)
 Traces of the OPDMs: Tr(AA) 1.000000, Tr(BB) 1.000000
 Density matrix was written to a file for further analysis.

 CCSD calculation:   CPU 0.52 s  wall 0.37 s

        Solving for EOMEE-CCSD A singlet states.

Running a double precision version
        EOMEE-CCSD/MP2 right amplitudes will be solved using Davidson.
        Amplitudes will be solved using standard  algorithm.
     Hard-coded thresholds: 
     LinDepThresh=1.00e-15  NormThresh=1.00e-06  ReorthogonThresh=1.00e-02

      Roots     MaxVec    MaxIter   Precond   Conv      Shift    
      3         120       60        1         1.00e-05  0.00e+00  
 ------------------------------------------------------------------------------
      Iter ConvRoots NVecs ResNorm Current eigenvalues (eV)
 ------------------------------------------------------------------------------
      0    0      3     7.24e-02   10.8278   32.8450   33.4633   
      1    2      6     2.44e-02   10.4871*  28.5492*  29.8346   
      2    2      7     2.63e-02   10.4871*  15.7259   28.5492*  
      3    2      8     4.80e-05   10.4871*  13.6858   28.5492*  
      4    3      9     3.96e-31   10.4871*  13.6858*  28.5492*  

     Davidson procedure converged

 EOMEE transition 1/A
 Total energy = -0.66895227 a.u.  Excitation energy = 10.48713694 eV.
 R0^2 = 0.0000  R1^2 = 0.9902  R2^2 = 0.0098  Res^2 = 3.64e-31
 Conv-d = yes

 Amplitude    Transitions between orbitals
 -0.7035712517       1 (A) A                   ->    2 (A) A                    
 -0.7035712517       1 (A) B                   ->    2 (A) B                    
  0.0090035544       1 (A) A                   ->    3 (A) A                    
  0.0090035544       1 (A) B                   ->    3 (A) B                    
  0.0518071747       1 (A) A       1 (A) B     ->    2 (A) A       4 (A) B      
  0.0518071747       1 (A) A       1 (A) B     ->    4 (A) A       2 (A) B      
 -0.0518071747       1 (A) A       1 (A) B     ->    4 (A) B       2 (A) A      
 -0.0518071747       1 (A) A       1 (A) B     ->    2 (A) B       4 (A) A      
 -0.0518071747       1 (A) B       1 (A) A     ->    2 (A) A       4 (A) B      
 -0.0518071747       1 (A) B       1 (A) A     ->    4 (A) A       2 (A) B      
  0.0518071747       1 (A) B       1 (A) A     ->    2 (A) B       4 (A) A      
  0.0518071747       1 (A) B       1 (A) A     ->    4 (A) B       2 (A) A      
  0.0471428310       1 (A) A       1 (A) B     ->    3 (A) A       4 (A) B      
  0.0471428310       1 (A) A       1 (A) B     ->    4 (A) A       3 (A) B      
 -0.0471428310       1 (A) A       1 (A) B     ->    4 (A) B       3 (A) A      
 -0.0471428310       1 (A) A       1 (A) B     ->    3 (A) B       4 (A) A      
 -0.0471428310       1 (A) B       1 (A) A     ->    3 (A) A       4 (A) B      
 -0.0471428310       1 (A) B       1 (A) A     ->    4 (A) A       3 (A) B      
  0.0471428310       1 (A) B       1 (A) A     ->    3 (A) B       4 (A) A      
  0.0471428310       1 (A) B       1 (A) A     ->    4 (A) B       3 (A) A      

              Summary of significant orbitals:

               Number  Type             Irrep      Energy
               1       Occ  Alpha       1 (A)     -0.4371
               1       Occ  Beta        1 (A)     -0.4371
               2       Vir  Alpha       2 (A)      0.0528
               3       Vir  Alpha       3 (A)      1.0146
               4       Vir  Alpha       4 (A)      1.0492
               2       Vir  Beta        2 (A)      0.0528
               3       Vir  Beta        3 (A)      1.0146
               4       Vir  Beta        4 (A)      1.0492


 EOMEE transition 2/A
 Total energy = -0.55140189 a.u.  Excitation energy = 13.68584536 eV.
 R0^2 = 0.0837  R1^2 = 0.0193  R2^2 = 0.9807  Res^2 = 4.75e-31
 Conv-d = yes

 Amplitude    Transitions between orbitals
 -0.0982993587       1 (A) A                   ->    4 (A) A                    
 -0.0982993587       1 (A) B                   ->    4 (A) B                    
  0.9816131907       1 (A) A       1 (A) B     ->    2 (A) A       2 (A) B      
 -0.9816131907       1 (A) A       1 (A) B     ->    2 (A) B       2 (A) A      
 -0.9816131907       1 (A) B       1 (A) A     ->    2 (A) A       2 (A) B      
  0.9816131907       1 (A) B       1 (A) A     ->    2 (A) B       2 (A) A      
  0.0864527310       1 (A) A       1 (A) B     ->    2 (A) A       3 (A) B      
  0.0864527310       1 (A) A       1 (A) B     ->    3 (A) A       2 (A) B      
 -0.0864527310       1 (A) A       1 (A) B     ->    3 (A) B       2 (A) A      
 -0.0864527310       1 (A) A       1 (A) B     ->    2 (A) B       3 (A) A      
 -0.0864527310       1 (A) B       1 (A) A     ->    2 (A) A       3 (A) B      
 -0.0864527310       1 (A) B       1 (A) A     ->    3 (A) A       2 (A) B      
  0.0864527310       1 (A) B       1 (A) A     ->    2 (A) B       3 (A) A      
  0.0864527310       1 (A) B       1 (A) A     ->    3 (A) B       2 (A) A      
 -0.0340726606       1 (A) A       1 (A) B     ->    4 (A) A       4 (A) B      
  0.0340726606       1 (A) A       1 (A) B     ->    4 (A) B       4 (A) A      
  0.0340726606       1 (A) B       1 (A) A     ->    4 (A) A       4 (A) B      
 -0.0340726606       1 (A) B       1 (A) A     ->    4 (A) B       4 (A) A      
 -0.0316373254       1 (A) A       1 (A) B     ->    3 (A) A       3 (A) B      
  0.0316373254       1 (A) A       1 (A) B     ->    3 (A) B       3 (A) A      
  0.0316373254       1 (A) B       1 (A) A     ->    3 (A) A       3 (A) B      
 -0.0316373254       1 (A) B       1 (A) A     ->    3 (A) B       3 (A) A      

              Summary of significant orbitals:

               Number  Type             Irrep      Energy
               1       Occ  Alpha       1 (A)     -0.4371
               1       Occ  Beta        1 (A)     -0.4371
               2       Vir  Alpha       2 (A)      0.0528
               3       Vir  Alpha       3 (A)      1.0146
               4       Vir  Alpha       4 (A)      1.0492
               2       Vir  Beta        2 (A)      0.0528
               3       Vir  Beta        3 (A)      1.0146
               4       Vir  Beta        4 (A)      1.0492


 EOMEE transition 3/A
 Total energy = -0.00518297 a.u.  Excitation energy = 28.54921831 eV.
 R0^2 = 0.0000  R1^2 = 0.7289  R2^2 = 0.2711  Res^2 = 3.50e-31
 Conv-d = yes

 Amplitude    Transitions between orbitals
  0.6035978884       1 (A) A                   ->    3 (A) A                    
  0.6035978884       1 (A) B                   ->    3 (A) B                    
 -0.0104921803       1 (A) A                   ->    2 (A) A                    
 -0.0104921803       1 (A) B                   ->    2 (A) B                    
 -0.3634139616       1 (A) A       1 (A) B     ->    2 (A) A       4 (A) B      
 -0.3634139616       1 (A) A       1 (A) B     ->    4 (A) A       2 (A) B      
  0.3634139616       1 (A) A       1 (A) B     ->    4 (A) B       2 (A) A      
  0.3634139616       1 (A) A       1 (A) B     ->    2 (A) B       4 (A) A      
  0.3634139616       1 (A) B       1 (A) A     ->    2 (A) A       4 (A) B      
  0.3634139616       1 (A) B       1 (A) A     ->    4 (A) A       2 (A) B      
 -0.3634139616       1 (A) B       1 (A) A     ->    2 (A) B       4 (A) A      
 -0.3634139616       1 (A) B       1 (A) A     ->    4 (A) B       2 (A) A      
 -0.0590744939       1 (A) A       1 (A) B     ->    3 (A) A       4 (A) B      
 -0.0590744939       1 (A) A       1 (A) B     ->    4 (A) A       3 (A) B      
  0.0590744939       1 (A) A       1 (A) B     ->    4 (A) B       3 (A) A      
  0.0590744939       1 (A) A       1 (A) B     ->    3 (A) B       4 (A) A      
  0.0590744939       1 (A) B       1 (A) A     ->    3 (A) A       4 (A) B      
  0.0590744939       1 (A) B       1 (A) A     ->    4 (A) A       3 (A) B      
 -0.0590744939       1 (A) B       1 (A) A     ->    3 (A) B       4 (A) A      
 -0.0590744939       1 (A) B       1 (A) A     ->    4 (A) B       3 (A) A      

              Summary of significant orbitals:

               Number  Type             Irrep      Energy
               1       Occ  Alpha       1 (A)     -0.4371
               1       Occ  Beta        1 (A)     -0.4371
               2       Vir  Alpha       2 (A)      0.0528
               3       Vir  Alpha       3 (A)      1.0146
               4       Vir  Alpha       4 (A)      1.0492
               2       Vir  Beta        2 (A)      0.0528
               3       Vir  Beta        3 (A)      1.0146
               4       Vir  Beta        4 (A)      1.0492


 EEs and amplitudes of EOMEE has be exported to fchk file
Running a double precision version
      EOM-CCSD/MP2 left amplitudes will be solved using Davidson.
        Amplitudes will be solved using MOM  algorithm.
     Hard-coded thresholds: 
     LinDepThresh=1.00e-15  NormThresh=1.00e-06  ReorthogonThresh=1.00e-02

      Roots     MaxVec    MaxIter   Precond   Conv      Shift    
      3         120       60        1         1.00e-05  0.00e+00  
 ------------------------------------------------------------------------------
      Iter ConvRoots NVecs ResNorm Current eigenvalues (eV)
 ------------------------------------------------------------------------------
      0    0      3     1.43e-03   10.4871   13.6858   28.5492   
      1    2      6     2.02e-05   10.4871*  13.6858   28.5492*  
      2    3      7     8.39e-07   10.4871*  13.6858*  28.5492*  

     Davidson procedure converged

 Excited state properties for  EOMEE-CCSD transition 1/A
 Dipole moment (a.u.): 0.000000 (X -0.000000, Y -0.000000, Z 0.000000)
 R-squared (a.u.): 12.005684 (XX 2.308091, YY 2.308091, ZZ 7.389503)
 Gauge origin (a.u.): (0.000000, 0.000000, 0.000000)
 Angular momentum (a.u.) against gauge origin: 
 (X 0.000000i, Y 0.000000i, Z 0.000000i)
 Traces of the OPDMs: Tr(AA) 1.000000, Tr(BB) 1.000000

 Excited state properties for  EOMEE-CCSD transition 2/A
 Dipole moment (a.u.): 0.000000 (X -0.000000, Y -0.000000, Z 0.000000)
 R-squared (a.u.): 12.727850 (XX 2.155029, YY 2.155029, ZZ 8.417792)
 Gauge origin (a.u.): (0.000000, 0.000000, 0.000000)
 Angular momentum (a.u.) against gauge origin: 
 (X 0.000000i, Y 0.000000i, Z 0.000000i)
 Traces of the OPDMs: Tr(AA) 1.000000, Tr(BB) 1.000000

 Excited state properties for  EOMEE-CCSD transition 3/A
 Dipole moment (a.u.): 0.000000 (X -0.000000, Y -0.000000, Z 0.000000)
 R-squared (a.u.): 12.146059 (XX 2.400863, YY 2.400863, ZZ 7.344333)
 Gauge origin (a.u.): (0.000000, 0.000000, 0.000000)
 Angular momentum (a.u.) against gauge origin: 
 (X 0.000000i, Y 0.000000i, Z 0.000000i)
 Traces of the OPDMs: Tr(AA) 1.000000, Tr(BB) 1.000000

        Solving for EOMEE-CCSD A triplet states.

Running a double precision version
        EOMEE-CCSD/MP2 right amplitudes will be solved using Davidson.
        Amplitudes will be solved using standard  algorithm.
     Hard-coded thresholds: 
     LinDepThresh=1.00e-15  NormThresh=1.00e-06  ReorthogonThresh=1.00e-02

      Roots     MaxVec    MaxIter   Precond   Conv      Shift    
      3         120       60        1         1.00e-05  0.00e+00  
 ------------------------------------------------------------------------------
      Iter ConvRoots NVecs ResNorm Current eigenvalues (eV)
 ------------------------------------------------------------------------------
      0    0      3     5.94e-03   2.7047   28.7224   29.2983   
      1    3      6     9.18e-32   2.6243*  27.9274*  28.2956*  

     Davidson procedure converged

 EOMEE transition 1/A
 Total energy = -0.95790574 a.u.  Excitation energy = 2.62431327 eV.
 R0^2 = 0.0000  R1^2 = 0.9986  R2^2 = 0.0014  Res^2 = 7.87e-32
 Conv-d = yes

 Amplitude    Transitions between orbitals
  0.7011067302       1 (A) A                   ->    2 (A) A                    
 -0.7011067302       1 (A) B                   ->    2 (A) B                    
  0.0881493884       1 (A) A                   ->    3 (A) A                    
 -0.0881493884       1 (A) B                   ->    3 (A) B                    
  0.0260140231       1 (A) A       1 (A) B     ->    2 (A) A       4 (A) B      
 -0.0260140231       1 (A) A       1 (A) B     ->    4 (A) A       2 (A) B      
 -0.0260140231       1 (A) A       1 (A) B     ->    4 (A) B       2 (A) A      
  0.0260140231       1 (A) A       1 (A) B     ->    2 (A) B       4 (A) A      
 -0.0260140231       1 (A) B       1 (A) A     ->    2 (A) A       4 (A) B      
  0.0260140231       1 (A) B       1 (A) A     ->    4 (A) A       2 (A) B      
 -0.0260140231       1 (A) B       1 (A) A     ->    2 (A) B       4 (A) A      
  0.0260140231       1 (A) B       1 (A) A     ->    4 (A) B       2 (A) A      
  0.0015194711       1 (A) A       1 (A) B     ->    3 (A) A       4 (A) B      
 -0.0015194711       1 (A) A       1 (A) B     ->    4 (A) A       3 (A) B      
 -0.0015194711       1 (A) A       1 (A) B     ->    4 (A) B       3 (A) A      
  0.0015194711       1 (A) A       1 (A) B     ->    3 (A) B       4 (A) A      
 -0.0015194711       1 (A) B       1 (A) A     ->    3 (A) A       4 (A) B      
  0.0015194711       1 (A) B       1 (A) A     ->    4 (A) A       3 (A) B      
 -0.0015194711       1 (A) B       1 (A) A     ->    3 (A) B       4 (A) A      
  0.0015194711       1 (A) B       1 (A) A     ->    4 (A) B       3 (A) A      

              Summary of significant orbitals:

               Number  Type             Irrep      Energy
               1       Occ  Alpha       1 (A)     -0.4371
               1       Occ  Beta        1 (A)     -0.4371
               2       Vir  Alpha       2 (A)      0.0528
               3       Vir  Alpha       3 (A)      1.0146
               4       Vir  Alpha       4 (A)      1.0492
               2       Vir  Beta        2 (A)      0.0528
               3       Vir  Beta        3 (A)      1.0146
               4       Vir  Beta        4 (A)      1.0492


 EOMEE transition 2/A
 Total energy = -0.02803278 a.u.  Excitation energy = 27.92744312 eV.
 R0^2 = 0.0000  R1^2 = 0.9038  R2^2 = 0.0962  Res^2 = 4.25e-32
 Conv-d = yes

 Amplitude    Transitions between orbitals
  0.6650110712       1 (A) A                   ->    3 (A) A                    
 -0.6650110712       1 (A) B                   ->    3 (A) B                    
 -0.0983506595       1 (A) A                   ->    2 (A) A                    
  0.0983506595       1 (A) B                   ->    2 (A) B                    
  0.2128457395       1 (A) A       1 (A) B     ->    2 (A) A       4 (A) B      
 -0.2128457395       1 (A) A       1 (A) B     ->    4 (A) A       2 (A) B      
 -0.2128457395       1 (A) A       1 (A) B     ->    4 (A) B       2 (A) A      
  0.2128457395       1 (A) A       1 (A) B     ->    2 (A) B       4 (A) A      
 -0.2128457395       1 (A) B       1 (A) A     ->    2 (A) A       4 (A) B      
  0.2128457395       1 (A) B       1 (A) A     ->    4 (A) A       2 (A) B      
 -0.2128457395       1 (A) B       1 (A) A     ->    2 (A) B       4 (A) A      
  0.2128457395       1 (A) B       1 (A) A     ->    4 (A) B       2 (A) A      
  0.0527647057       1 (A) A       1 (A) B     ->    3 (A) A       4 (A) B      
 -0.0527647057       1 (A) A       1 (A) B     ->    4 (A) A       3 (A) B      
 -0.0527647057       1 (A) A       1 (A) B     ->    4 (A) B       3 (A) A      
  0.0527647057       1 (A) A       1 (A) B     ->    3 (A) B       4 (A) A      
 -0.0527647057       1 (A) B       1 (A) A     ->    3 (A) A       4 (A) B      
  0.0527647057       1 (A) B       1 (A) A     ->    4 (A) A       3 (A) B      
 -0.0527647057       1 (A) B       1 (A) A     ->    3 (A) B       4 (A) A      
  0.0527647057       1 (A) B       1 (A) A     ->    4 (A) B       3 (A) A      

              Summary of significant orbitals:

               Number  Type             Irrep      Energy
               1       Occ  Alpha       1 (A)     -0.4371
               1       Occ  Beta        1 (A)     -0.4371
               2       Vir  Alpha       2 (A)      0.0528
               3       Vir  Alpha       3 (A)      1.0146
               4       Vir  Alpha       4 (A)      1.0492
               2       Vir  Beta        2 (A)      0.0528
               3       Vir  Beta        3 (A)      1.0146
               4       Vir  Beta        4 (A)      1.0492


 EOMEE transition 3/A
 Total energy = -0.01450343 a.u.  Excitation energy = 28.29559562 eV.
 R0^2 = 0.0000  R1^2 = 0.8519  R2^2 = 0.1481  Res^2 = 1.54e-31
 Conv-d = yes

 Amplitude    Transitions between orbitals
  0.6526500900       1 (A) A                   ->    4 (A) A                    
 -0.6526500900       1 (A) B                   ->    4 (A) B                    
  0.2721173645       1 (A) A       1 (A) B     ->    2 (A) A       3 (A) B      
 -0.2721173645       1 (A) A       1 (A) B     ->    3 (A) A       2 (A) B      
 -0.2721173645       1 (A) A       1 (A) B     ->    3 (A) B       2 (A) A      
  0.2721173645       1 (A) A       1 (A) B     ->    2 (A) B       3 (A) A      
 -0.2721173645       1 (A) B       1 (A) A     ->    2 (A) A       3 (A) B      
  0.2721173645       1 (A) B       1 (A) A     ->    3 (A) A       2 (A) B      
 -0.2721173645       1 (A) B       1 (A) A     ->    2 (A) B       3 (A) A      
  0.2721173645       1 (A) B       1 (A) A     ->    3 (A) B       2 (A) A      

              Summary of significant orbitals:

               Number  Type             Irrep      Energy
               1       Occ  Alpha       1 (A)     -0.4371
               1       Occ  Beta        1 (A)     -0.4371
               2       Vir  Alpha       2 (A)      0.0528
               3       Vir  Alpha       3 (A)      1.0146
               4       Vir  Alpha       4 (A)      1.0492
               2       Vir  Beta        2 (A)      0.0528
               3       Vir  Beta        3 (A)      1.0146
               4       Vir  Beta        4 (A)      1.0492


 EEs and amplitudes of EOMEE has be exported to fchk file
Running a double precision version
      EOM-CCSD/MP2 left amplitudes will be solved using Davidson.
        Amplitudes will be solved using MOM  algorithm.
     Hard-coded thresholds: 
     LinDepThresh=1.00e-15  NormThresh=1.00e-06  ReorthogonThresh=1.00e-02

      Roots     MaxVec    MaxIter   Precond   Conv      Shift    
      3         120       60        1         1.00e-05  0.00e+00  
 ------------------------------------------------------------------------------
      Iter ConvRoots NVecs ResNorm Current eigenvalues (eV)
 ------------------------------------------------------------------------------
      0    1      3     7.35e-04   2.6243   27.9274   28.2956*  
      1    3      5     1.33e-31   2.6243*  27.9274*  28.2956*  

     Davidson procedure converged

 Excited state properties for  EOMEE-CCSD transition 1/A
 Dipole moment (a.u.): 0.000000 (X -0.000000, Y -0.000000, Z 0.000000)
 R-squared (a.u.): 10.346512 (XX 1.854824, YY 1.854824, ZZ 6.636864)
 Gauge origin (a.u.): (0.000000, 0.000000, 0.000000)
 Angular momentum (a.u.) against gauge origin: 
 (X 0.000000i, Y 0.000000i, Z 0.000000i)
 Traces of the OPDMs: Tr(AA) 1.000000, Tr(BB) 1.000000

 Excited state properties for  EOMEE-CCSD transition 2/A
 Dipole moment (a.u.): 0.000000 (X -0.000000, Y -0.000000, Z 0.000000)
 R-squared (a.u.): 12.418246 (XX 2.355812, YY 2.355812, ZZ 7.706622)
 Gauge origin (a.u.): (0.000000, 0.000000, 0.000000)
 Angular momentum (a.u.) against gauge origin: 
 (X 0.000000i, Y 0.000000i, Z 0.000000i)
 Traces of the OPDMs: Tr(AA) 1.000000, Tr(BB) 1.000000

 Excited state properties for  EOMEE-CCSD transition 3/A
 Dipole moment (a.u.): 0.000000 (X -0.000000, Y -0.000000, Z 0.000000)
 R-squared (a.u.): 11.174894 (XX 2.506776, YY 2.506776, ZZ 6.161343)
 Gauge origin (a.u.): (0.000000, 0.000000, 0.000000)
 Angular momentum (a.u.) against gauge origin: 
 (X 0.000000i, Y 0.000000i, Z 0.000000i)
 Traces of the OPDMs: Tr(AA) 1.000000, Tr(BB) 1.000000

 EOMEE-CCSD calculation:   CPU 1.13 s  wall 0.85 s

 Total ccman2 time:   CPU 1.90 s  wall 1.34 s


 --------------------------------------------------------------

                    Orbital Energies (a.u.)
 --------------------------------------------------------------

 Alpha MOs
 -- Occupied --
 -0.4371
 -- Virtual --
  0.0528   1.0146   1.0492
 --------------------------------------------------------------

          Ground-State Mulliken Net Atomic Charges

     Atom                 Charge (a.u.)
  ----------------------------------------
      1 H                     0.000000
      2 H                    -0.000000
  ----------------------------------------
  Sum of atomic charges =     0.000000

 -----------------------------------------------------------------
                    Cartesian Multipole Moments
 -----------------------------------------------------------------
    Charge (ESU x 10^10)
                -0.0000
    Dipole Moment (Debye)
         X       0.0000      Y       0.0000      Z      -0.0000
       Tot       0.0000
    Quadrupole Moments (Debye-Ang)
        XX      -2.6262     XY       0.0000     YY      -2.6262
        XZ       0.0000     YZ       0.0000     ZZ      -1.7420
    Octopole Moments (Debye-Ang^2)
       XXX       0.0000    XXY       0.0000    XYY       0.0000
       YYY       0.0000    XXZ      -0.0000    XYZ       0.0000
       YYZ      -0.0000    XZZ       0.0000    YZZ       0.0000
       ZZZ      -0.0000
    Hexadecapole Moments (Debye-Ang^3)
      XXXX      -2.8265   XXXY       0.0000   XXYY      -0.9422
      XYYY       0.0000   YYYY      -2.8265   XXXZ       0.0000
      XXYZ       0.0000   XYYZ       0.0000   YYYZ       0.0000
      XXZZ      -2.1022   XYZZ       0.0000   YYZZ      -2.1022
      XZZZ       0.0000   YZZZ       0.0000   ZZZZ      -9.2434
 -----------------------------------------------------------------
 Total job time:  2.47s(wall), 3.32s(cpu) 
 Thu Aug 11 11:25:27 2022

        *************************************************************
        *                                                           *
        *  Thank you very much for using Q-Chem.  Have a nice day.  *
        *                                                           *
        *************************************************************


