Jobname.Temp
SP        R                             6-31G               
Number of atoms                            I                2
Charge                                     I                0
Multiplicity                               I                1
Number of electrons                        I                2
Number of alpha electrons                  I                1
Number of beta electrons                   I                1
Atomic numbers                             I   N=           2
           1           1
Current cartesian coordinates              R   N=           6
  0.00000000E+00  0.00000000E+00 -1.88972612E-01  0.00000000E+00  0.00000000E+00
  1.88972612E-01
Nuclear charges                            R   N=           2
  1.00000000E+00  1.00000000E+00
Number of basis functions                  I                4
Number of contracted shells                I                4
Number of primitive shells                 I                8
Highest angular momentum                   I                0
Largest degree of contraction              I                3
Shell types                                I   N=           4
           0           0           0           0
Number of primitives per shell             I   N=           4
           3           1           3           1
Shell to atom map                          I   N=           4
           1           1           2           2
Primitive exponents                        R   N=           8
  1.87311370E+01  2.82539370E+00  6.40121700E-01  1.61277800E-01  1.87311370E+01
  2.82539370E+00  6.40121700E-01  1.61277800E-01
Contraction coefficients                   R   N=           8
  3.34945995E-02  2.34726947E-01  8.13757318E-01  1.00000000E+00  3.34945995E-02
  2.34726947E-01  8.13757318E-01  1.00000000E+00
Coordinates of each shell                  R   N=          12
  0.00000000E+00  0.00000000E+00 -1.88972612E-01  0.00000000E+00  0.00000000E+00
 -1.88972612E-01  0.00000000E+00  0.00000000E+00  1.88972612E-01  0.00000000E+00
  0.00000000E+00  1.88972612E-01
Overlap Matrix                             R   N=          10
  1.00000000E+00  6.58292049E-01  1.00000000E+00  9.37181842E-01  6.46040795E-01
  1.00000000E+00  6.46040795E-01  9.88547416E-01  6.58292049E-01  1.00000000E+00
Core Hamiltonian Matrix                    R   N=          10
 -1.69638118E+00 -1.17951799E+00 -1.03007837E+00 -1.74725228E+00 -1.16864825E+00
 -1.69638118E+00 -1.16864825E+00 -1.02486629E+00 -1.17951799E+00 -1.03007837E+00
Orbital Coefficients CCMAN2 Alpha          R   N=          16
 -4.20661482E-01 -1.18016764E-01 -4.20661482E-01 -1.18016764E-01  2.49507428E-02
  6.58054534E+00 -2.49507428E-02 -6.58054534E+00 -5.34139156E-01  6.60599914E-01
 -5.34139156E-01  6.60599914E-01 -3.17130926E+00  3.44445063E+00  3.17130926E+00
 -3.44445063E+00
Orbital Coefficients CCMAN2 Beta           R   N=          16
  2.49507428E-02  6.58054534E+00 -2.49507428E-02 -6.58054534E+00 -5.34139156E-01
  6.60599914E-01 -5.34139156E-01  6.60599914E-01 -3.17130926E+00  3.44445063E+00
  3.17130926E+00 -3.44445063E+00 -4.20661482E-01 -1.18016764E-01 -4.20661482E-01
 -1.18016764E-01
EOMEE transition A Excitation Energies     R   N=           3
  7.89953150E-01  1.02401674E+00  2.12343520E+00
Number of Active Occ                       I                2
Number of Active Vir                       I                6
Alpha Amplitudes                           R   N=           6
 -6.95558895E-01 -6.95558895E-01  6.95496834E-01  6.95496834E-01 -1.23577076E-01
 -1.23577076E-01
Alpha J Indexes                            I   N=           4
           0           2           4           6
Alpha I Indexes                            I   N=           6
           0           9           1          10           0           9
EOMEE transition A Excitation Energies     R   N=           3
  7.37854744E-01  8.44960713E-01  1.98746435E+00
Number of Active Occ                       I                2
Number of Active Vir                       I                6
Alpha Amplitudes                           R   N=           4
 -6.99465702E-01  6.99465702E-01 -7.07020999E-01  7.07020999E-01
Alpha J Indexes                            I   N=           4
           0           2           4           4
Alpha I Indexes                            I   N=           4
           0           9           1          10
Number of independent functions            I                4
Alpha MO coefficients                      R   N=          16
 -4.20661482E-01 -1.18016764E-01 -4.20661482E-01 -1.18016764E-01  2.49507428E-02
  6.58054534E+00 -2.49507428E-02 -6.58054534E+00 -5.34139156E-01  6.60599914E-01
 -5.34139156E-01  6.60599914E-01 -3.17130926E+00  3.44445063E+00  3.17130926E+00
 -3.44445063E+00
Alpha Orbital Energies                     R   N=           4
 -8.25527277E-01  3.49252846E-01  5.66313260E-01  3.01718563E+00
Total SCF Density                          R   N=          10
  3.71309493E-01  1.05295508E-01  3.72781070E-02  3.28417026E-01  9.27118486E-02
  3.71309493E-01  9.27118486E-02  2.54962608E-02  1.05295508E-01  3.72781070E-02
Pure Switching                             I                1
Dipole_Data                                R   N=           3
  0.00000000E+00  0.00000000E+00 -1.51967021E-15
Quadrupole_Data                            R   N=           6
 -1.21268878E+00  0.00000000E+00 -1.21268878E+00  0.00000000E+00  0.00000000E+00
 -1.17731491E+00
Octapole_Data                              R   N=          10
  0.00000000E+00  0.00000000E+00  0.00000000E+00  0.00000000E+00 -2.81716473E-16
  0.00000000E+00 -2.81716473E-16  0.00000000E+00  0.00000000E+00 -8.49480005E-16
Hexadecapole_Data                          R   N=          15
 -7.08204859E-01  0.00000000E+00 -2.36068286E-01  0.00000000E+00 -7.08204859E-01
  0.00000000E+00  0.00000000E+00  0.00000000E+00  0.00000000E+00 -2.43579354E-01
  0.00000000E+00 -2.43579354E-01  0.00000000E+00  0.00000000E+00 -7.52872859E-01
