                  Welcome to Q-Chem
     A Quantum Leap Into The Future Of Chemistry


 Q-Chem 5.4 (devel), Q-Chem, Inc., Pleasanton, CA (2021)

 E. Epifanovsky,  A. T. B. Gilbert,  Xintian Feng,  Joonho Lee,  Yuezhi Mao,  
 N. Mardirossian,  P. Pokhilko,  A. White,  M. Wormit,  M. P. Coons,  
 A. L. Dempwolff,  Zhengting Gan,  D. Hait,  P. R. Horn,  L. D. Jacobson,  
 I. Kaliman,  J. Kussmann,  A. W. Lange,  Ka Un Lao,  D. S. Levine,  Jie Liu,  
 S. C. McKenzie,  A. F. Morrison,  K. Nanda,  F. Plasser,  D. R. Rehn,  
 M. L. Vidal,  Zhi-Qiang You,  Ying Zhu,  B. Alam,  B. Albrecht,  
 A. Aldossary,  E. Alguire,  J. H. Andersen,  D. Barton,  K. Begam,  A. Behn,  
 Y. A. Bernard,  E. J. Berquist,  H. Burton,  A. Carreras,  K. Carter-Fenk,  
 R. Chakraborty,  A. D. Chien,  K. D. Closser,  V. Cofer-Shabica,  
 S. Dasgupta,  Jia Deng,  M. de Wergifosse,  M. Diedenhofen,  Hainam Do,  
 S. Ehlert,  Po-Tung Fang,  S. Fatehi,  Qingguo Feng,  T. Friedhoff,  
 J. Gayvert,  Qinghui Ge,  G. Gidofalvi,  M. Goldey,  J. Gomes,  
 C. Gonzalez-Espinoza,  S. Gulania,  A. Gunina,  M. W. D. Hanson-Heine,  
 P. H. P. Harbach,  A. W. Hauser,  M. F. Herbst,  M. Hernandez Vera,  
 M. Hodecker,  Z. C. Holden,  S. Houck,  Xunkun Huang,  Kerwin Hui,  
 B. C. Huynh,  M. Ivanov,  Hyunjun Ji,  Hanjie Jiang,  B. Kaduk,  S. Kaehler,  
 K. Khistyaev,  Jaehoon Kim,  P. Klunzinger,  Z. Koczor-Benda,  
 Joong Hoon Koh,  D. Kosenkov,  L. Koulias,  T. Kowalczyk,  C. M. Krauter,  
 K. Kue,  A. Kunitsa,  T. Kus,  A. Landau,  K. V. Lawler,  D. Lefrancois,  
 S. Lehtola,  Rain Li,  Yi-Pei Li,  Jiashu Liang,  M. Liebenthal,  
 Hung-Hsuan Lin,  You-Sheng Lin,  Fenglai Liu,  Kuan-Yu Liu,  
 M. Loipersberger,  A. Luenser,  A. Manjanath,  P. Manohar,  E. Mansoor,  
 S. F. Manzer,  Shan-Ping Mao,  A. V. Marenich,  T. Markovich,  S. Mason,  
 S. A. Maurer,  P. F. McLaughlin,  M. F. S. J. Menger,  J.-M. Mewes,  
 S. A. Mewes,  P. Morgante,  J. W. Mullinax,  K. J. Oosterbaan,  G. Paran,  
 Alexander C. Paul,  Suranjan K. Paul,  F. Pavosevic,  Zheng Pei,  S. Prager,  
 E. I. Proynov,  E. Ramos,  B. Rana,  A. E. Rask,  A. Rettig,  R. M. Richard,  
 F. Rob,  E. Rossomme,  T. Scheele,  M. Scheurer,  M. Schneider,  
 N. Sergueev,  S. M. Sharada,  W. Skomorowski,  D. W. Small,  C. J. Stein,  
 Yu-Chuan Su,  E. J. Sundstrom,  Zhen Tao,  J. Thirman,  T. Tsuchimochi,  
 N. M. Tubman,  S. P. Veccham,  O. Vydrov,  J. Wenzel,  J. Witte,  A. Yamada,  
 Kun Yao,  S. Yeganeh,  S. R. Yost,  A. Zech,  Igor Ying Zhang,  Xing Zhang,  
 Yu Zhang,  D. Zuev,  A. Aspuru-Guzik,  A. T. Bell,  N. A. Besley,  
 K. B. Bravaya,  B. R. Brooks,  D. Casanova,  Jeng-Da Chai,  S. Coriani,  
 C. J. Cramer,  A. E. DePrince, III,  R. A. DiStasio Jr.,  A. Dreuw,  
 B. D. Dunietz,  T. R. Furlani,  W. A. Goddard III,  S. Grimme,  
 S. Hammes-Schiffer,  T. Head-Gordon,  W. J. Hehre,  Chao-Ping Hsu,  
 T.-C. Jagau,  Yousung Jung,  A. Klamt,  Jing Kong,  D. S. Lambrecht,  
 WanZhen Liang,  N. J. Mayhall,  C. W. McCurdy,  J. B. Neaton,  
 C. Ochsenfeld,  J. A. Parkhill,  R. Peverati,  V. A. Rassolov,  Yihan Shao,  
 L. V. Slipchenko,  T. Stauch,  R. P. Steele,  J. E. Subotnik,  
 A. J. W. Thom,  A. Tkatchenko,  D. G. Truhlar,  T. Van Voorhis,  
 T. A. Wesolowski,  K. B. Whaley,  H. L. Woodcock III,  P. M. Zimmerman,  
 S. Faraji,  P. M. W. Gill,  M. Head-Gordon,  J. M. Herbert,  A. I. Krylov

 Additional authors for Version 5.4.1: 
 S. Kotaru,  Shaozhi Li,  Xiangyuan Li,  F. Matz,  A. Molle,  Haisheng Ren,  
 Yingli Su,  Hung-Yi Tsai,  C. Utku,  Fang Wang

 Contributors to earlier versions of Q-Chem not listed above: 
 R. D. Adamson,  B. Austin,  R. Baer,  J. Baker,  G. J. O. Beran,  
 K. Brandhorst,  S. T. Brown,  E. F. C. Byrd,  A. K. Chakraborty,  
 G. K. L. Chan,  Chun-Min Chang,  Yunqing Chen,  C.-L. Cheng,  
 Siu Hung Chien,  D. M. Chipman,  D. L. Crittenden,  H. Dachsel,  
 R. J. Doerksen,  A. D. Dutoi,  R. G. Edgar,  J. Fosso-Tande,  
 L. Fusti-Molnar,  D. Ghosh,  A. Ghysels,  A. Golubeva-Zadorozhnaya,  
 J. Gonthier,  M. S. Gordon,  S. R. Gwaltney,  G. Hawkins,  J. E. Herr,  
 A. Heyden,  S. Hirata,  E. G. Hohenstein,  G. Kedziora,  F. J. Keil,  
 C. Kelley,  Jihan Kim,  R. A. King,  R. Z. Khaliullin,  P. P. Korambath,  
 W. Kurlancheek,  A. Laurent,  A. M. Lee,  M. S. Lee,  S. V. Levchenko,  
 Ching Yeh Lin,  D. Liotard,  E. Livshits,  R. C. Lochan,  I. Lotan,  
 L. A. Martinez-Martinez,  P. E. Maslen,  N. Nair,  D. P. O'Neill,  
 D. Neuhauser,  E. Neuscamman,  C. M. Oana,  R. Olivares-Amaya,  R. Olson,  
 T. M. Perrine,  B. Peters,  P. A. Pieniazek,  A. Prociuk,  Y. M. Rhee,  
 J. Ritchie,  M. A. Rohrdanz,  E. Rosta,  N. J. Russ,  H. F. Schaefer III,  
 M. W. Schmidt,  N. E. Schultz,  S. Sharma,  N. Shenvi,  C. D. Sherrill,  
 A. C. Simmonett,  A. Sodt,  T. Stein,  D. Stuck,  K. S. Thanthiriwatte,  
 V. Vanovschi,  L. Vogt,  Tao Wang,  A. Warshel,  M. A. Watson,  
 C. F. Williams,  Q. Wu,  X. Xu,  Jun Yang,  W. Zhang,  Yan Zhao

 Please cite Q-Chem as follows:
 Y. Shao et al., Mol. Phys. 113, 184-215 (2015)
 DOI: 10.1080/00268976.2014.952696

 Q-Chem 5.4.1 for Intel X86 EM64T Linux

 Parts of Q-Chem use Armadillo 9.900.5 (Nocturnal Misbehaviour).
 http://arma.sourceforge.net/

 Q-Chem begins on Thu Aug 11 11:14:23 2022  

orc23
 Host: 0

     Scratch files written to /scratch/yongbin/qchem8408//
 Processing $rem in /home/users/yongbin/software/yongbin_quantum/config/preferences:
 Processing $rem in /home/users/yongbin/.qchemrc:
 Core orbitals will be frozen

 Checking the input file for inconsistencies... 	...done.

--------------------------------------------------------------
User input:
--------------------------------------------------------------
$comment
Hydrogen molecule
$end

$molecule
0 1
H 0.0 0.0 0.0
H 0.0 0.0 0.2
$end

$rem
   print_qis = true
   BASIS                = 6-31g 
   SYMMETRY             = false
   CC_SYMMETRY          = false
   METHOD               = eom-ccsd
   EE_SINGLETS          = [3]  ! Compute two EOM-EE singlet excited states
   EE_TRIPLETS          = [3]  ! Compute two EOM-EE triplet excited states
   CC_REF_PROP          = true ! Compute ground state properties
   CC_EOM_PROP          = true ! Compute excited state properties
!   CC_OSFNO             = true
   GUI                  = 2
$end
--------------------------------------------------------------
 ----------------------------------------------------------------
             Standard Nuclear Orientation (Angstroms)
    I     Atom           X                Y                Z
 ----------------------------------------------------------------
    1      H       0.0000000000     0.0000000000    -0.1000000000
    2      H       0.0000000000     0.0000000000     0.1000000000
 ----------------------------------------------------------------
 Molecular Point Group                 D*h   NOp =***
 Largest Abelian Subgroup              D2h   NOp =  1
 Nuclear Repulsion Energy =           2.64588605 hartrees
 There are        1 alpha and        1 beta electrons
 Requested basis set is 6-31G
 There are 4 shells and 4 basis functions
 Total memory of 2000 MB is distributed as follows: 
   MEM_STATIC is set to 192 MB
   QALLOC/CCMAN JOB total memory use is  1808 MB
 Warning: actual memory use might exceed 2000 MB

 Total QAlloc Memory Limit   2000 MB
 Mega-Array Size       188 MB
 MEM_STATIC part       192 MB

                       Distance Matrix (Angstroms)
             H (  1)
   H (  2)  0.200000

 A cutoff of  1.0D-14 yielded     10 shell pairs
 There are        10 function pairs
 Smallest overlap matrix eigenvalue = 8.68E-03

 Scale SEOQF with 1.000000e+00/1.000000e+00/1.000000e+00

 Standard Electronic Orientation quadrupole field applied
 Guess from superposition of atomic densities
 Warning:  Energy on first SCF cycle will be non-variational
 SAD guess density has 2.000000 electrons

 -----------------------------------------------------------------------
  General SCF calculation program by
  Eric Jon Sundstrom, Paul Horn, Yuezhi Mao, Dmitri Zuev, Alec White,
  David Stuck, Shaama M.S., Shane Yost, Joonho Lee, David Small,
  Daniel Levine, Susi Lehtola, Hugh Burton, Evgeny Epifanovsky,
  Bang C. Huynh
 -----------------------------------------------------------------------
 Hartree-Fock
 using 12 threads for integral computing
 -------------------------------------------------------
 OpenMP Integral computing Module                
 Release: version 1.0, May 2013, Q-Chem Inc. Pittsburgh 
 -------------------------------------------------------
 A restricted SCF calculation will be
 performed using DIIS
 SCF converges when DIIS error is below 1.0e-08
 ---------------------------------------
  Cycle       Energy         DIIS error
 ---------------------------------------
    1       0.4060733626      2.78e-01  
    2       0.0823593077      3.55e-02  
    3       0.0780805683      1.50e-03  
    4       0.0780727886      9.70e-06  
    5       0.0780727883      6.32e-08  
    6       0.0780727883      4.16e-10  Convergence criterion met
 ---------------------------------------
 SCF time:   CPU 0.59s  wall 0.00s 
 SCF   energy in the final basis set =        0.0780727883
 Total energy in the final basis set =        0.0780727883


 ------------------------------------------------------------------------------

   CCMAN2: suite of methods based on coupled cluster
           and equation of motion theories.

   Components:
   * libvmm-1.3-trunk
     by Evgeny Epifanovsky, Ilya Kaliman.
   * libtensor-2.5-trunk
     by Evgeny Epifanovsky, Michael Wormit, Dmitry Zuev, Sam Manzer, 
        Ilya Kaliman.
   * libcc-2.5-trunk
     by Evgeny Epifanovsky, Arik Landau, Tomasz Kus, Kirill Khistyaev, 
        Dmitry Zuev, Prashant Manohar, Xintian Feng, Anna Krylov, 
        Matthew Goldey, Alec White, Thomas Jagau, Kaushik Nanda, 
        Anastasia Gunina, Alexander Kunitsa, Joonho Lee.

   CCMAN original authors:
   Anna I. Krylov, C. David Sherrill, Steven R. Gwaltney,
   Edward F. C. Byrd (2000)
   Sergey V. Levchenko, Lyudmila V. Slipchenko, Tao Wang,
   Ana-Maria C. Cristian (2003)
   Piotr A. Pieniazek, C. Melania Oana, Evgeny Epifanovsky (2007)
   Prashant Manohar (2009)

 ------------------------------------------------------------------------------


 Allocating and initializing 1808MB of RAM...
 Calculation will run on 12 cores.


 Occupation and symmetry of molecular orbitals

 Point group: C1 (1 irreducible representation).

                           A     All 
 -------------------------------------
 All molecular orbitals:
  - Alpha                  4     4   
  - Beta                   4     4   
 -------------------------------------
 Alpha orbitals:
  - Frozen occupied        0     0   
  - Active occupied        1     1   
  - Active virtual         3     3   
  - Frozen virtual         0     0   
 -------------------------------------
 Beta orbitals:
  - Frozen occupied        0     0   
  - Active occupied        1     1   
  - Active virtual         3     3   
  - Frozen virtual         0     0   
 -------------------------------------

 Import integrals:   CPU 0.00 s  wall 0.00 s

 Import integrals:   CPU 0.08 s  wall 0.04 s

 Run QIS:   CPU 0.00 s  wall 0.01 s

 MP2 amplitudes:   CPU 0.00 s  wall 0.00 s

Running a double precision version
           CCSD T amplitudes will be solved using DIIS.

           Start     Size      MaxIter   EConv     TConv     
           3         7         100       1.00e-06  1.00e-04  
 ------------------------------------------------------------------------------
           Energy (a.u.)   Ediff      Tdiff       Comment
 ------------------------------------------------------------------------------
             0.06793627                           
     1       0.06580448   2.13e-03   7.75e-02     
     2       0.06532620   4.78e-04   1.65e-02     
     3       0.06521075   1.15e-04   4.07e-03     
     4       0.06516912   4.16e-05   1.53e-03     Switched to DIIS steps.
     5       0.06516885   2.64e-07   1.07e-04     
     6       0.06516889   3.47e-08   6.54e-06     
 ------------------------------------------------------------------------------
             0.06516889                           CCSD T converged.

End of double precision
 SCF energy                 = 0.07807279
 MP2 energy                 = 0.06793627
 CCSD correlation energy    = -0.01290390
 CCSD total energy          = 0.06516889

 CCSD  T1^2 = 0.0000  T2^2 = 0.0041  Leading amplitudes:

 Amplitude    Orbitals with energies
 -0.0047660732       1 (A) A                   ->    3 (A) A                    
                    -0.8255                          0.5663                     
 -0.0047660732       1 (A) B                   ->    3 (A) B                    
                    -0.8255                          0.5663                     

 Amplitude    Orbitals with energies
 -0.0505786637       1 (A) A       1 (A) B     ->    3 (A) A       3 (A) B      
                    -0.8255       -0.8255            0.5663        0.5663       
  0.0505786637       1 (A) A       1 (A) B     ->    3 (A) B       3 (A) A      
                    -0.8255       -0.8255            0.5663        0.5663       
  0.0505786637       1 (A) B       1 (A) A     ->    3 (A) A       3 (A) B      
                    -0.8255       -0.8255            0.5663        0.5663       
 -0.0505786637       1 (A) B       1 (A) A     ->    3 (A) B       3 (A) A      
                    -0.8255       -0.8255            0.5663        0.5663       

 Computing CCSD intermediates for later calculations in double precision
 Finished.

Running a double precision version
           CCSD Lambda amplitudes will be solved using DIIS.
           Start     Size      MaxIter   EConv     LConv     
           3         7         100       1.00e-06  1.00e-04  
 ------------------------------------------------------------------------------
            Enorm      Ldiff       Comment
 ------------------------------------------------------------------------------
     1     4.82e-04   4.21e-04     
     2     1.39e-04   1.18e-04     
     3     4.40e-05   3.45e-05     
     4     2.43e-06   1.53e-05     Switched to DIIS steps.
     5     1.44e-07   2.76e-07     
 ------------------------------------------------------------------------------
                                   CCSD Lambda converged.

 Computing density matrices in double precision...
 Computing density matrices... Done.
 Reference state properties
 Dipole moment (a.u.): 0.000000 (X -0.000000, Y -0.000000, Z 0.000000)
 R-squared (a.u.): 2.749935 (XX 0.901604, YY 0.901604, ZZ 0.946726)
 Gauge origin (a.u.): (0.000000, 0.000000, 0.000000)
 Angular momentum (a.u.) against gauge origin: 
 (X 0.000000i, Y 0.000000i, Z 0.000000i)
 Traces of the OPDMs: Tr(AA) 1.000000, Tr(BB) 1.000000
 Density matrix was written to a file for further analysis.

 CCSD calculation:   CPU 0.83 s  wall 0.56 s

        Solving for EOMEE-CCSD A singlet states.

Running a double precision version
        EOMEE-CCSD/MP2 right amplitudes will be solved using Davidson.
        Amplitudes will be solved using standard  algorithm.
     Hard-coded thresholds: 
     LinDepThresh=1.00e-15  NormThresh=1.00e-06  ReorthogonThresh=1.00e-02

      Roots     MaxVec    MaxIter   Precond   Conv      Shift    
      3         120       60        1         1.00e-05  0.00e+00  
 ------------------------------------------------------------------------------
      Iter ConvRoots NVecs ResNorm Current eigenvalues (eV)
 ------------------------------------------------------------------------------
      0    0      3     4.06e-02   22.6500   28.8980   89.9669   
      1    2      6     1.28e-02   21.4957*  28.2081   57.7816*  
      2    2      7     4.57e-05   21.4957*  27.8665   57.7816*  
      3    3      8     1.07e-06   21.4957*  27.8649*  57.7816*  

     Davidson procedure converged

 EOMEE transition 1/A
 Total energy = 0.85512204 a.u.  Excitation energy = 21.49571842 eV.
 R0^2 = 0.0000  R1^2 = 0.9676  R2^2 = 0.0324  Res^2 = 1.02e-28
 Conv-d = yes

 Amplitude    Transitions between orbitals
 -0.6955588952       1 (A) A                   ->    2 (A) A                    
 -0.6955588952       1 (A) B                   ->    2 (A) B                    
  0.0021530853       1 (A) A                   ->    4 (A) A                    
  0.0021530853       1 (A) B                   ->    4 (A) B                    
 -0.1272074088       1 (A) A       1 (A) B     ->    2 (A) A       3 (A) B      
 -0.1272074088       1 (A) A       1 (A) B     ->    3 (A) A       2 (A) B      
  0.1272074088       1 (A) A       1 (A) B     ->    3 (A) B       2 (A) A      
  0.1272074088       1 (A) A       1 (A) B     ->    2 (A) B       3 (A) A      
  0.1272074088       1 (A) B       1 (A) A     ->    2 (A) A       3 (A) B      
  0.1272074088       1 (A) B       1 (A) A     ->    3 (A) A       2 (A) B      
 -0.1272074088       1 (A) B       1 (A) A     ->    2 (A) B       3 (A) A      
 -0.1272074088       1 (A) B       1 (A) A     ->    3 (A) B       2 (A) A      
  0.0033856647       1 (A) A       1 (A) B     ->    3 (A) A       4 (A) B      
  0.0033856647       1 (A) A       1 (A) B     ->    4 (A) A       3 (A) B      
 -0.0033856647       1 (A) A       1 (A) B     ->    4 (A) B       3 (A) A      
 -0.0033856647       1 (A) A       1 (A) B     ->    3 (A) B       4 (A) A      
 -0.0033856647       1 (A) B       1 (A) A     ->    3 (A) A       4 (A) B      
 -0.0033856647       1 (A) B       1 (A) A     ->    4 (A) A       3 (A) B      
  0.0033856647       1 (A) B       1 (A) A     ->    3 (A) B       4 (A) A      
  0.0033856647       1 (A) B       1 (A) A     ->    4 (A) B       3 (A) A      

              Summary of significant orbitals:

               Number  Type             Irrep      Energy
               1       Occ  Alpha       1 (A)     -0.8255
               1       Occ  Beta        1 (A)     -0.8255
               2       Vir  Alpha       2 (A)      0.3493
               3       Vir  Alpha       3 (A)      0.5663
               4       Vir  Alpha       4 (A)      3.0172
               2       Vir  Beta        2 (A)      0.3493
               3       Vir  Beta        3 (A)      0.5663
               4       Vir  Beta        4 (A)      3.0172


 EOMEE transition 2/A
 Total energy = 1.08918563 a.u.  Excitation energy = 27.86491267 eV.
 R0^2 = 0.0002  R1^2 = 0.9674  R2^2 = 0.0326  Res^2 = 3.20e-06
 Conv-d = yes

 Amplitude    Transitions between orbitals
  0.6954968345       1 (A) A                   ->    3 (A) A                    
  0.6954968345       1 (A) B                   ->    3 (A) B                    
  0.1745913796       1 (A) A       1 (A) B     ->    3 (A) A       3 (A) B      
 -0.1745913796       1 (A) A       1 (A) B     ->    3 (A) B       3 (A) A      
 -0.1745913796       1 (A) B       1 (A) A     ->    3 (A) A       3 (A) B      
  0.1745913796       1 (A) B       1 (A) A     ->    3 (A) B       3 (A) A      
  0.0391347809       1 (A) A       1 (A) B     ->    2 (A) A       2 (A) B      
 -0.0391347809       1 (A) A       1 (A) B     ->    2 (A) B       2 (A) A      
 -0.0391347809       1 (A) B       1 (A) A     ->    2 (A) A       2 (A) B      
  0.0391347809       1 (A) B       1 (A) A     ->    2 (A) B       2 (A) A      
 -0.0229303982       1 (A) A       1 (A) B     ->    4 (A) A       4 (A) B      
  0.0229303982       1 (A) A       1 (A) B     ->    4 (A) B       4 (A) A      
  0.0229303982       1 (A) B       1 (A) A     ->    4 (A) A       4 (A) B      
 -0.0229303982       1 (A) B       1 (A) A     ->    4 (A) B       4 (A) A      
 -0.0037962091       1 (A) A       1 (A) B     ->    2 (A) A       4 (A) B      
 -0.0037962091       1 (A) A       1 (A) B     ->    4 (A) A       2 (A) B      
  0.0037962091       1 (A) A       1 (A) B     ->    4 (A) B       2 (A) A      
  0.0037962091       1 (A) A       1 (A) B     ->    2 (A) B       4 (A) A      
  0.0037962091       1 (A) B       1 (A) A     ->    2 (A) A       4 (A) B      
  0.0037962091       1 (A) B       1 (A) A     ->    4 (A) A       2 (A) B      
 -0.0037962091       1 (A) B       1 (A) A     ->    2 (A) B       4 (A) A      
 -0.0037962091       1 (A) B       1 (A) A     ->    4 (A) B       2 (A) A      

              Summary of significant orbitals:

               Number  Type             Irrep      Energy
               1       Occ  Alpha       1 (A)     -0.8255
               1       Occ  Beta        1 (A)     -0.8255
               2       Vir  Alpha       2 (A)      0.3493
               3       Vir  Alpha       3 (A)      0.5663
               4       Vir  Alpha       4 (A)      3.0172
               2       Vir  Beta        2 (A)      0.3493
               3       Vir  Beta        3 (A)      0.5663
               4       Vir  Beta        4 (A)      3.0172


 EOMEE transition 3/A
 Total energy = 2.18860409 a.u.  Excitation energy = 57.78161043 eV.
 R0^2 = 0.0000  R1^2 = 0.0341  R2^2 = 0.9659  Res^2 = 1.64e-29
 Conv-d = yes

 Amplitude    Transitions between orbitals
 -0.1235770756       1 (A) A                   ->    2 (A) A                    
 -0.1235770756       1 (A) B                   ->    2 (A) B                    
  0.0421914524       1 (A) A                   ->    4 (A) A                    
  0.0421914524       1 (A) B                   ->    4 (A) B                    
  0.6922673978       1 (A) A       1 (A) B     ->    2 (A) A       3 (A) B      
  0.6922673978       1 (A) A       1 (A) B     ->    3 (A) A       2 (A) B      
 -0.6922673978       1 (A) A       1 (A) B     ->    3 (A) B       2 (A) A      
 -0.6922673978       1 (A) A       1 (A) B     ->    2 (A) B       3 (A) A      
 -0.6922673978       1 (A) B       1 (A) A     ->    2 (A) A       3 (A) B      
 -0.6922673978       1 (A) B       1 (A) A     ->    3 (A) A       2 (A) B      
  0.6922673978       1 (A) B       1 (A) A     ->    2 (A) B       3 (A) A      
  0.6922673978       1 (A) B       1 (A) A     ->    3 (A) B       2 (A) A      
 -0.0609461871       1 (A) A       1 (A) B     ->    3 (A) A       4 (A) B      
 -0.0609461871       1 (A) A       1 (A) B     ->    4 (A) A       3 (A) B      
  0.0609461871       1 (A) A       1 (A) B     ->    4 (A) B       3 (A) A      
  0.0609461871       1 (A) A       1 (A) B     ->    3 (A) B       4 (A) A      
  0.0609461871       1 (A) B       1 (A) A     ->    3 (A) A       4 (A) B      
  0.0609461871       1 (A) B       1 (A) A     ->    4 (A) A       3 (A) B      
 -0.0609461871       1 (A) B       1 (A) A     ->    3 (A) B       4 (A) A      
 -0.0609461871       1 (A) B       1 (A) A     ->    4 (A) B       3 (A) A      

              Summary of significant orbitals:

               Number  Type             Irrep      Energy
               1       Occ  Alpha       1 (A)     -0.8255
               1       Occ  Beta        1 (A)     -0.8255
               2       Vir  Alpha       2 (A)      0.3493
               3       Vir  Alpha       3 (A)      0.5663
               4       Vir  Alpha       4 (A)      3.0172
               2       Vir  Beta        2 (A)      0.3493
               3       Vir  Beta        3 (A)      0.5663
               4       Vir  Beta        4 (A)      3.0172


 EEs and amplitudes of EOMEE has be exported to fchk file
Running a double precision version
      EOM-CCSD/MP2 left amplitudes will be solved using Davidson.
        Amplitudes will be solved using MOM  algorithm.
     Hard-coded thresholds: 
     LinDepThresh=1.00e-15  NormThresh=1.00e-06  ReorthogonThresh=1.00e-02

      Roots     MaxVec    MaxIter   Precond   Conv      Shift    
      3         120       60        1         1.00e-05  0.00e+00  
 ------------------------------------------------------------------------------
      Iter ConvRoots NVecs ResNorm Current eigenvalues (eV)
 ------------------------------------------------------------------------------
      0    2      3     2.61e-05   21.4957*  27.8649   57.7816*  
      1    2      4     1.58e-05   21.4957*  27.8649   57.7816*  
      2    3      5     7.73e-07   21.4957*  27.8649*  57.7816*  

     Davidson procedure converged

 Excited state properties for  EOMEE-CCSD transition 1/A
 Dipole moment (a.u.): 0.000000 (X -0.000000, Y -0.000000, Z 0.000000)
 R-squared (a.u.): 8.639945 (XX 1.841851, YY 1.841851, ZZ 4.956243)
 Gauge origin (a.u.): (0.000000, 0.000000, 0.000000)
 Angular momentum (a.u.) against gauge origin: 
 (X 0.000000i, Y 0.000000i, Z 0.000000i)
 Traces of the OPDMs: Tr(AA) 1.000000, Tr(BB) 1.000000

 Excited state properties for  EOMEE-CCSD transition 2/A
 Dipole moment (a.u.): 0.000000 (X -0.000000, Y -0.000000, Z 0.000000)
 R-squared (a.u.): 6.590093 (XX 2.184226, YY 2.184226, ZZ 2.221641)
 Gauge origin (a.u.): (0.000000, 0.000000, 0.000000)
 Angular momentum (a.u.) against gauge origin: 
 (X 0.000000i, Y 0.000000i, Z 0.000000i)
 Traces of the OPDMs: Tr(AA) 1.000000, Tr(BB) 1.000000

 Excited state properties for  EOMEE-CCSD transition 3/A
 Dipole moment (a.u.): 0.000000 (X -0.000000, Y -0.000000, Z 0.000000)
 R-squared (a.u.): 13.516492 (XX 3.541767, YY 3.541767, ZZ 6.432958)
 Gauge origin (a.u.): (0.000000, 0.000000, 0.000000)
 Angular momentum (a.u.) against gauge origin: 
 (X 0.000000i, Y 0.000000i, Z 0.000000i)
 Traces of the OPDMs: Tr(AA) 1.000000, Tr(BB) 1.000000

        Solving for EOMEE-CCSD A triplet states.

Running a double precision version
        EOMEE-CCSD/MP2 right amplitudes will be solved using Davidson.
        Amplitudes will be solved using standard  algorithm.
     Hard-coded thresholds: 
     LinDepThresh=1.00e-15  NormThresh=1.00e-06  ReorthogonThresh=1.00e-02

      Roots     MaxVec    MaxIter   Precond   Conv      Shift    
      3         120       60        1         1.00e-05  0.00e+00  
 ------------------------------------------------------------------------------
      Iter ConvRoots NVecs ResNorm Current eigenvalues (eV)
 ------------------------------------------------------------------------------
      0    0      3     1.39e-02   20.7007   23.0126   80.3248   
      1    3      6     1.69e-30   20.0780*  22.9926*  54.0817*  

     Davidson procedure converged

 EOMEE transition 1/A
 Total energy = 0.80302363 a.u.  Excitation energy = 20.07804871 eV.
 R0^2 = 0.0000  R1^2 = 0.9818  R2^2 = 0.0182  Res^2 = 3.30e-31
 Conv-d = yes

 Amplitude    Transitions between orbitals
 -0.6994657019       1 (A) A                   ->    2 (A) A                    
  0.6994657019       1 (A) B                   ->    2 (A) B                    
  0.0408643464       1 (A) A                   ->    4 (A) A                    
 -0.0408643464       1 (A) B                   ->    4 (A) B                    
 -0.0948749164       1 (A) A       1 (A) B     ->    2 (A) A       3 (A) B      
  0.0948749164       1 (A) A       1 (A) B     ->    3 (A) A       2 (A) B      
  0.0948749164       1 (A) A       1 (A) B     ->    3 (A) B       2 (A) A      
 -0.0948749164       1 (A) A       1 (A) B     ->    2 (A) B       3 (A) A      
  0.0948749164       1 (A) B       1 (A) A     ->    2 (A) A       3 (A) B      
 -0.0948749164       1 (A) B       1 (A) A     ->    3 (A) A       2 (A) B      
  0.0948749164       1 (A) B       1 (A) A     ->    2 (A) B       3 (A) A      
 -0.0948749164       1 (A) B       1 (A) A     ->    3 (A) B       2 (A) A      
  0.0087514196       1 (A) A       1 (A) B     ->    3 (A) A       4 (A) B      
 -0.0087514196       1 (A) A       1 (A) B     ->    4 (A) A       3 (A) B      
 -0.0087514196       1 (A) A       1 (A) B     ->    4 (A) B       3 (A) A      
  0.0087514196       1 (A) A       1 (A) B     ->    3 (A) B       4 (A) A      
 -0.0087514196       1 (A) B       1 (A) A     ->    3 (A) A       4 (A) B      
  0.0087514196       1 (A) B       1 (A) A     ->    4 (A) A       3 (A) B      
 -0.0087514196       1 (A) B       1 (A) A     ->    3 (A) B       4 (A) A      
  0.0087514196       1 (A) B       1 (A) A     ->    4 (A) B       3 (A) A      

              Summary of significant orbitals:

               Number  Type             Irrep      Energy
               1       Occ  Alpha       1 (A)     -0.8255
               1       Occ  Beta        1 (A)     -0.8255
               2       Vir  Alpha       2 (A)      0.3493
               3       Vir  Alpha       3 (A)      0.5663
               4       Vir  Alpha       4 (A)      3.0172
               2       Vir  Beta        2 (A)      0.3493
               3       Vir  Beta        3 (A)      0.5663
               4       Vir  Beta        4 (A)      3.0172


 EOMEE transition 2/A
 Total energy = 0.91012960 a.u.  Excitation energy = 22.99255034 eV.
 R0^2 = 0.0000  R1^2 = 0.9998  R2^2 = 0.0002  Res^2 = 6.99e-31
 Conv-d = yes

 Amplitude    Transitions between orbitals
 -0.7070209990       1 (A) A                   ->    3 (A) A                    
  0.7070209990       1 (A) B                   ->    3 (A) B                    
  0.0110139435       1 (A) A       1 (A) B     ->    2 (A) A       4 (A) B      
 -0.0110139435       1 (A) A       1 (A) B     ->    4 (A) A       2 (A) B      
 -0.0110139435       1 (A) A       1 (A) B     ->    4 (A) B       2 (A) A      
  0.0110139435       1 (A) A       1 (A) B     ->    2 (A) B       4 (A) A      
 -0.0110139435       1 (A) B       1 (A) A     ->    2 (A) A       4 (A) B      
  0.0110139435       1 (A) B       1 (A) A     ->    4 (A) A       2 (A) B      
 -0.0110139435       1 (A) B       1 (A) A     ->    2 (A) B       4 (A) A      
  0.0110139435       1 (A) B       1 (A) A     ->    4 (A) B       2 (A) A      

              Summary of significant orbitals:

               Number  Type             Irrep      Energy
               1       Occ  Alpha       1 (A)     -0.8255
               1       Occ  Beta        1 (A)     -0.8255
               2       Vir  Alpha       2 (A)      0.3493
               3       Vir  Alpha       3 (A)      0.5663
               4       Vir  Alpha       4 (A)      3.0172
               2       Vir  Beta        2 (A)      0.3493
               3       Vir  Beta        3 (A)      0.5663
               4       Vir  Beta        4 (A)      3.0172


 EOMEE transition 3/A
 Total energy = 2.05263323 a.u.  Excitation energy = 54.08165530 eV.
 R0^2 = 0.0000  R1^2 = 0.0170  R2^2 = 0.9830  Res^2 = 4.03e-30
 Conv-d = yes

 Amplitude    Transitions between orbitals
 -0.0897356824       1 (A) A                   ->    2 (A) A                    
  0.0897356824       1 (A) B                   ->    2 (A) B                    
  0.0208721988       1 (A) A                   ->    4 (A) A                    
 -0.0208721988       1 (A) B                   ->    4 (A) B                    
  0.6993618127       1 (A) A       1 (A) B     ->    2 (A) A       3 (A) B      
 -0.6993618127       1 (A) A       1 (A) B     ->    3 (A) A       2 (A) B      
 -0.6993618127       1 (A) A       1 (A) B     ->    3 (A) B       2 (A) A      
  0.6993618127       1 (A) A       1 (A) B     ->    2 (A) B       3 (A) A      
 -0.6993618127       1 (A) B       1 (A) A     ->    2 (A) A       3 (A) B      
  0.6993618127       1 (A) B       1 (A) A     ->    3 (A) A       2 (A) B      
 -0.6993618127       1 (A) B       1 (A) A     ->    2 (A) B       3 (A) A      
  0.6993618127       1 (A) B       1 (A) A     ->    3 (A) B       2 (A) A      
  0.0490399174       1 (A) A       1 (A) B     ->    3 (A) A       4 (A) B      
 -0.0490399174       1 (A) A       1 (A) B     ->    4 (A) A       3 (A) B      
 -0.0490399174       1 (A) A       1 (A) B     ->    4 (A) B       3 (A) A      
  0.0490399174       1 (A) A       1 (A) B     ->    3 (A) B       4 (A) A      
 -0.0490399174       1 (A) B       1 (A) A     ->    3 (A) A       4 (A) B      
  0.0490399174       1 (A) B       1 (A) A     ->    4 (A) A       3 (A) B      
 -0.0490399174       1 (A) B       1 (A) A     ->    3 (A) B       4 (A) A      
  0.0490399174       1 (A) B       1 (A) A     ->    4 (A) B       3 (A) A      

              Summary of significant orbitals:

               Number  Type             Irrep      Energy
               1       Occ  Alpha       1 (A)     -0.8255
               1       Occ  Beta        1 (A)     -0.8255
               2       Vir  Alpha       2 (A)      0.3493
               3       Vir  Alpha       3 (A)      0.5663
               4       Vir  Alpha       4 (A)      3.0172
               2       Vir  Beta        2 (A)      0.3493
               3       Vir  Beta        3 (A)      0.5663
               4       Vir  Beta        4 (A)      3.0172


 EEs and amplitudes of EOMEE has be exported to fchk file
Running a double precision version
      EOM-CCSD/MP2 left amplitudes will be solved using Davidson.
        Amplitudes will be solved using MOM  algorithm.
     Hard-coded thresholds: 
     LinDepThresh=1.00e-15  NormThresh=1.00e-06  ReorthogonThresh=1.00e-02

      Roots     MaxVec    MaxIter   Precond   Conv      Shift    
      3         120       60        1         1.00e-05  0.00e+00  
 ------------------------------------------------------------------------------
      Iter ConvRoots NVecs ResNorm Current eigenvalues (eV)
 ------------------------------------------------------------------------------
      0    3      3     3.30e-09   20.0780*  22.9926*  54.0817*  

     Davidson procedure converged

 Excited state properties for  EOMEE-CCSD transition 1/A
 Dipole moment (a.u.): 0.000000 (X -0.000000, Y -0.000000, Z 0.000000)
 R-squared (a.u.): 8.437194 (XX 1.812089, YY 1.812089, ZZ 4.813016)
 Gauge origin (a.u.): (0.000000, 0.000000, 0.000000)
 Angular momentum (a.u.) against gauge origin: 
 (X 0.000000i, Y 0.000000i, Z 0.000000i)
 Traces of the OPDMs: Tr(AA) 1.000000, Tr(BB) 1.000000

 Excited state properties for  EOMEE-CCSD transition 2/A
 Dipole moment (a.u.): 0.000000 (X -0.000000, Y -0.000000, Z 0.000000)
 R-squared (a.u.): 7.274280 (XX 2.414813, YY 2.414813, ZZ 2.444653)
 Gauge origin (a.u.): (0.000000, 0.000000, 0.000000)
 Angular momentum (a.u.) against gauge origin: 
 (X 0.000000i, Y 0.000000i, Z 0.000000i)
 Traces of the OPDMs: Tr(AA) 1.000000, Tr(BB) 1.000000

 Excited state properties for  EOMEE-CCSD transition 3/A
 Dipole moment (a.u.): 0.000000 (X -0.000000, Y -0.000000, Z 0.000000)
 R-squared (a.u.): 13.583004 (XX 3.544761, YY 3.544761, ZZ 6.493482)
 Gauge origin (a.u.): (0.000000, 0.000000, 0.000000)
 Angular momentum (a.u.) against gauge origin: 
 (X 0.000000i, Y 0.000000i, Z 0.000000i)
 Traces of the OPDMs: Tr(AA) 1.000000, Tr(BB) 1.000000

 EOMEE-CCSD calculation:   CPU 1.72 s  wall 1.27 s

 Total ccman2 time:   CPU 3.23 s  wall 2.48 s


 --------------------------------------------------------------

                    Orbital Energies (a.u.)
 --------------------------------------------------------------

 Alpha MOs
 -- Occupied --
 -0.8255
 -- Virtual --
  0.3493   0.5663   3.0172
 --------------------------------------------------------------

          Ground-State Mulliken Net Atomic Charges

     Atom                 Charge (a.u.)
  ----------------------------------------
      1 H                    -0.000000
      2 H                    -0.000000
  ----------------------------------------
  Sum of atomic charges =     0.000000

 -----------------------------------------------------------------
                    Cartesian Multipole Moments
 -----------------------------------------------------------------
    Charge (ESU x 10^10)
                -0.0000
    Dipole Moment (Debye)
         X       0.0000      Y       0.0000      Z      -0.0000
       Tot       0.0000
    Quadrupole Moments (Debye-Ang)
        XX      -1.2127     XY       0.0000     YY      -1.2127
        XZ       0.0000     YZ       0.0000     ZZ      -1.1773
    Octopole Moments (Debye-Ang^2)
       XXX       0.0000    XXY       0.0000    XYY       0.0000
       YYY       0.0000    XXZ      -0.0000    XYZ       0.0000
       YYZ      -0.0000    XZZ       0.0000    YZZ       0.0000
       ZZZ      -0.0000
    Hexadecapole Moments (Debye-Ang^3)
      XXXX      -0.7082   XXXY       0.0000   XXYY      -0.2361
      XYYY       0.0000   YYYY      -0.7082   XXXZ       0.0000
      XXYZ       0.0000   XYYZ       0.0000   YYYZ       0.0000
      XXZZ      -0.2436   XYZZ       0.0000   YYZZ      -0.2436
      XZZZ       0.0000   YZZZ       0.0000   ZZZZ      -0.7529
 -----------------------------------------------------------------
 Total job time:  4.37s(wall), 4.68s(cpu) 
 Thu Aug 11 11:14:27 2022

        *************************************************************
        *                                                           *
        *  Thank you very much for using Q-Chem.  Have a nice day.  *
        *                                                           *
        *************************************************************


