Jobname.Temp
SP        R                             STO-3G              
Number of atoms                            I                4
Charge                                     I                0
Multiplicity                               I                1
Number of electrons                        I                4
Number of alpha electrons                  I                2
Number of beta electrons                   I                2
Atomic numbers                             I   N=           4
           1           1           1           1
Current cartesian coordinates              R   N=          12
  1.74799667E+00 -1.41729459E+00 -2.14067852E-16  1.74799667E+00  1.41729459E+00
  3.00019921E-16 -1.74799667E+00 -1.41729459E+00 -3.00019921E-16 -1.74799667E+00
  1.41729459E+00  2.14067852E-16
Nuclear charges                            R   N=           4
  1.00000000E+00  1.00000000E+00  1.00000000E+00  1.00000000E+00
Number of basis functions                  I                4
Number of contracted shells                I                4
Number of primitive shells                 I               12
Highest angular momentum                   I                0
Largest degree of contraction              I                3
Shell types                                I   N=           4
           0           0           0           0
Number of primitives per shell             I   N=           4
           3           3           3           3
Shell to atom map                          I   N=           4
           1           2           3           4
Primitive exponents                        R   N=          12
  3.42525091E+00  6.23913730E-01  1.68855400E-01  3.42525091E+00  6.23913730E-01
  1.68855400E-01  3.42525091E+00  6.23913730E-01  1.68855400E-01  3.42525091E+00
  6.23913730E-01  1.68855400E-01
Contraction coefficients                   R   N=          12
  1.54328971E-01  5.35328142E-01  4.44634542E-01  1.54328971E-01  5.35328142E-01
  4.44634542E-01  1.54328971E-01  5.35328142E-01  4.44634542E-01  1.54328971E-01
  5.35328142E-01  4.44634542E-01
Coordinates of each shell                  R   N=          12
  1.74799667E+00 -1.41729459E+00 -2.14067852E-16  1.74799667E+00  1.41729459E+00
  3.00019921E-16 -1.74799667E+00 -1.41729459E+00 -3.00019921E-16 -1.74799667E+00
  1.41729459E+00  2.14067852E-16
Overlap Matrix                             R   N=          10
  1.00000000E+00  2.56786336E-01  1.00000000E+00  1.51740364E-01  6.16159277E-02
  1.00000000E+00  6.16159277E-02  1.51740364E-01  2.56786336E-01  1.00000000E+00
Core Hamiltonian Matrix                    R   N=          10
 -1.32592429E+00 -4.58417233E-01 -1.32592429E+00 -2.72395174E-01 -1.20481898E-01
 -1.32592429E+00 -1.20481898E-01 -2.72395174E-01 -4.58417233E-01 -1.32592429E+00
Orbital Coefficients CCMAN2 Alpha          R   N=          16
 -4.12373045E-01 -4.12373045E-01 -4.12373045E-01 -4.12373045E-01 -4.89483814E-01
 -4.89483814E-01  4.89483814E-01  4.89483814E-01  6.18705169E-01 -6.18705169E-01
 -6.18705169E-01  6.18705169E-01 -5.47720991E-01  5.47720991E-01 -5.47720991E-01
  5.47720991E-01
Orbital Coefficients CCMAN2 Beta           R   N=          16
 -4.89483814E-01 -4.89483814E-01  4.89483814E-01  4.89483814E-01  6.18705169E-01
 -6.18705169E-01 -6.18705169E-01  6.18705169E-01 -5.47720991E-01  5.47720991E-01
 -5.47720991E-01  5.47720991E-01 -4.12373045E-01 -4.12373045E-01 -4.12373045E-01
 -4.12373045E-01
EOMEE transition Ag Excitation Energies    R   N=           1
  1.64432962E-01
Number of Active Occ                       I                4
Number of Active Vir                       I                4
Alpha Amplitudes                           R   N=           0
Alpha J Indexes                            I   N=           2
           0           0
Alpha I Indexes                            I   N=           0
EOMEE transition B1g Excitation Energies   R   N=           1
  3.93870656E-01
Number of Active Occ                       I                4
Number of Active Vir                       I                4
Alpha Amplitudes                           R   N=           2
 -7.05588033E-01 -7.05588033E-01
Alpha J Indexes                            I   N=           2
           0           2
Alpha I Indexes                            I   N=           2
           5          15
EOMEE transition B2u Excitation Energies   R   N=           1
  5.18473721E-01
Number of Active Occ                       I                4
Number of Active Vir                       I                4
Alpha Amplitudes                           R   N=           4
 -5.28342914E-01 -4.69950812E-01 -5.28342914E-01 -4.69950812E-01
Alpha J Indexes                            I   N=           2
           0           4
Alpha I Indexes                            I   N=           4
           1           4          11          14
EOMEE transition B3u Excitation Energies   R   N=           1
  5.96244382E-01
Number of Active Occ                       I                4
Number of Active Vir                       I                4
Alpha Amplitudes                           R   N=           0
Alpha J Indexes                            I   N=           2
           0           0
Alpha I Indexes                            I   N=           0
EOMEE transition Ag Excitation Energies    R   N=           1
  6.82086051E-01
Number of Active Occ                       I                4
Number of Active Vir                       I                4
Alpha Amplitudes                           R   N=           0
Alpha J Indexes                            I   N=           2
           0           0
Alpha I Indexes                            I   N=           0
EOMEE transition B1g Excitation Energies   R   N=           1
  5.63629735E-02
Number of Active Occ                       I                4
Number of Active Vir                       I                4
Alpha Amplitudes                           R   N=           4
  3.21051353E-01 -6.30020657E-01 -3.21051353E-01  6.30020657E-01
Alpha J Indexes                            I   N=           2
           0           4
Alpha I Indexes                            I   N=           4
           0           5          10          15
EOMEE transition B2u Excitation Energies   R   N=           1
  1.21885503E-01
Number of Active Occ                       I                4
Number of Active Vir                       I                4
Alpha Amplitudes                           R   N=           4
  4.90021080E-01 -5.09783622E-01 -4.90021080E-01  5.09783622E-01
Alpha J Indexes                            I   N=           2
           0           4
Alpha I Indexes                            I   N=           4
           1           4          11          14
EOMEE transition B3u Excitation Energies   R   N=           1
  1.82167862E-01
Number of Active Occ                       I                4
Number of Active Vir                       I                4
Alpha Amplitudes                           R   N=           0
Alpha J Indexes                            I   N=           2
           0           0
Alpha I Indexes                            I   N=           0
Number of independent functions            I                4
Alpha MO coefficients                      R   N=          16
 -4.12373045E-01 -4.12373045E-01 -4.12373045E-01 -4.12373045E-01 -4.89483814E-01
 -4.89483814E-01  4.89483814E-01  4.89483814E-01 -5.47720991E-01  5.47720991E-01
 -5.47720991E-01  5.47720991E-01  6.18705169E-01 -6.18705169E-01 -6.18705169E-01
  6.18705169E-01
Alpha Orbital Energies                     R   N=           4
 -4.22307416E-01 -2.68211020E-01  1.60402524E-01  3.05480180E-01
Total SCF Density                          R   N=          10
  8.89464848E-01  4.86876285E-01  8.89464848E-01 -4.95645260E-02 -1.13072814E-01
  8.89464848E-01 -1.13072814E-01 -4.95645260E-02  4.86876285E-01  8.89464848E-01
Pure Switching                             I                1
Dipole_Data                                R   N=           3
 -1.53778247E-16 -1.59614017E-15 -2.87839249E-31
Quadrupole_Data                            R   N=           6
 -3.84351267E+00 -9.50509730E-15 -2.61622452E+00 -4.89394841E-18  1.86482738E-16
 -3.64445741E+00
Octapole_Data                              R   N=          10
 -9.61971438E-16 -1.97553490E-15 -1.35504811E-15 -1.43226280E-15 -4.61686351E-31
 -1.90130335E-31 -2.34681423E-31 -3.18943608E-16 -1.18532094E-16 -9.32145839E-32
Hexadecapole_Data                          R   N=          15
 -2.22981563E+01 -1.03704399E-14 -5.13284687E+00 -8.67135582E-15 -1.29318502E+01
 -2.39401500E-16 -1.71553202E-16 -5.81536816E-17 -8.39579899E-16 -4.18693281E+00
 -1.17183109E-15 -2.76751830E+00 -2.34722061E-16 -9.59186317E-16 -3.01377096E+00
