Jobname.Temp
SP        R                             6-31G               
Number of atoms                            I                2
Charge                                     I                0
Multiplicity                               I                1
Number of electrons                        I                2
Number of alpha electrons                  I                1
Number of beta electrons                   I                1
Atomic numbers                             I   N=           2
           1           1
Current cartesian coordinates              R   N=           6
  0.00000000E+00  0.00000000E+00 -1.70075351E+00  0.00000000E+00  0.00000000E+00
  1.70075351E+00
Nuclear charges                            R   N=           2
  1.00000000E+00  1.00000000E+00
Number of basis functions                  I                4
Number of contracted shells                I                4
Number of primitive shells                 I                8
Highest angular momentum                   I                0
Largest degree of contraction              I                3
Shell types                                I   N=           4
           0           0           0           0
Number of primitives per shell             I   N=           4
           3           1           3           1
Shell to atom map                          I   N=           4
           1           1           2           2
Primitive exponents                        R   N=           8
  1.87311370E+01  2.82539370E+00  6.40121700E-01  1.61277800E-01  1.87311370E+01
  2.82539370E+00  6.40121700E-01  1.61277800E-01
Contraction coefficients                   R   N=           8
  3.34945995E-02  2.34726947E-01  8.13757318E-01  1.00000000E+00  3.34945995E-02
  2.34726947E-01  8.13757318E-01  1.00000000E+00
Coordinates of each shell                  R   N=          12
  0.00000000E+00  0.00000000E+00 -1.70075351E+00  0.00000000E+00  0.00000000E+00
 -1.70075351E+00  0.00000000E+00  0.00000000E+00  1.70075351E+00  0.00000000E+00
  0.00000000E+00  1.70075351E+00
Overlap Matrix                             R   N=          10
  1.00000000E+00  6.58292049E-01  1.00000000E+00  1.69520680E-02  1.44246905E-01
  1.00000000E+00  1.44246905E-01  3.93367010E-01  6.58292049E-01  1.00000000E+00
Core Hamiltonian Matrix                    R   N=          10
 -5.51539825E-01 -6.76102873E-01 -6.91071659E-01 -4.62613621E-02 -1.96138163E-01
 -5.51539825E-01 -1.96138163E-01 -3.47077372E-01 -6.76102873E-01 -6.91071659E-01
Orbital Coefficients CCMAN2 Alpha          R   N=          16
 -2.25699676E-01 -4.51865339E-01 -2.25699676E-01 -4.51865339E-01  2.27954608E-01
  6.88498648E-01 -2.27954608E-01 -6.88498648E-01  9.28087568E-01 -1.00298901E+00
 -9.28087568E-01  1.00298901E+00 -9.22185877E-01  6.73559619E-01 -9.22185877E-01
  6.73559619E-01
Orbital Coefficients CCMAN2 Beta           R   N=          16
  2.27954608E-01  6.88498648E-01 -2.27954608E-01 -6.88498648E-01  9.28087568E-01
 -1.00298901E+00 -9.28087568E-01  1.00298901E+00 -9.22185877E-01  6.73559619E-01
 -9.22185877E-01  6.73559619E-01 -2.25699676E-01 -4.51865339E-01 -2.25699676E-01
 -4.51865339E-01
EOMEE transition A Excitation Energies     R   N=           3
  3.58373781E-01  4.17964570E-01  1.02563717E+00
Number of Active Occ                       I                2
Number of Active Vir                       I                6
Alpha Amplitudes                           R   N=           6
 -7.00765605E-01 -7.00765605E-01  1.02860275E-01  1.02860275E-01  5.77668048E-01
  5.77668048E-01
Alpha J Indexes                            I   N=           4
           0           2           4           6
Alpha I Indexes                            I   N=           6
           0           9           2          11           1          10
EOMEE transition A Excitation Energies     R   N=           3
  4.72133473E-02  1.01256660E+00  1.01628308E+00
Number of Active Occ                       I                2
Number of Active Vir                       I                6
Alpha Amplitudes                           R   N=           6
 -7.02859283E-01  7.02859283E-01  6.28542619E-01 -6.28542619E-01  6.11774019E-01
 -6.11774019E-01
Alpha J Indexes                            I   N=           4
           0           2           4           6
Alpha I Indexes                            I   N=           6
           0           9           2          11           1          10
Number of independent functions            I                4
Alpha MO coefficients                      R   N=          16
 -2.25699676E-01 -4.51865339E-01 -2.25699676E-01 -4.51865339E-01  2.27954608E-01
  6.88498648E-01 -2.27954608E-01 -6.88498648E-01  9.28087568E-01 -1.00298901E+00
 -9.28087568E-01  1.00298901E+00 -9.22185877E-01  6.73559619E-01 -9.22185877E-01
  6.73559619E-01
Alpha Orbital Energies                     R   N=           4
 -3.99366850E-01  3.14735849E-03  1.01569167E+00  1.03342942E+00
Total SCF Density                          R   N=          10
  1.65022921E-01  2.52034986E-01  3.87451162E-01  7.09345310E-02  1.20508881E-01
  1.65022921E-01  1.20508881E-01  2.02691399E-01  2.52034986E-01  3.87451162E-01
Pure Switching                             I                1
Dipole_Data                                R   N=           3
  0.00000000E+00  0.00000000E+00 -4.65614370E-15
Quadrupole_Data                            R   N=           6
 -2.64848462E+00  0.00000000E+00 -2.64848462E+00  0.00000000E+00  0.00000000E+00
 -1.85543603E+00
Octapole_Data                              R   N=          10
  0.00000000E+00  0.00000000E+00  0.00000000E+00  0.00000000E+00 -6.91437214E-16
  0.00000000E+00 -6.91437214E-16  0.00000000E+00  0.00000000E+00 -5.68954050E-15
Hexadecapole_Data                          R   N=          15
 -2.86664284E+00  0.00000000E+00 -9.55547614E-01  0.00000000E+00 -2.86664284E+00
  0.00000000E+00  0.00000000E+00  0.00000000E+00  0.00000000E+00 -2.80257066E+00
  0.00000000E+00 -2.80257066E+00  0.00000000E+00  0.00000000E+00 -1.32574101E+01
