                  Welcome to Q-Chem
     A Quantum Leap Into The Future Of Chemistry


 Q-Chem 5.4 (devel), Q-Chem, Inc., Pleasanton, CA (2021)

 E. Epifanovsky,  A. T. B. Gilbert,  Xintian Feng,  Joonho Lee,  Yuezhi Mao,  
 N. Mardirossian,  P. Pokhilko,  A. White,  M. Wormit,  M. P. Coons,  
 A. L. Dempwolff,  Zhengting Gan,  D. Hait,  P. R. Horn,  L. D. Jacobson,  
 I. Kaliman,  J. Kussmann,  A. W. Lange,  Ka Un Lao,  D. S. Levine,  Jie Liu,  
 S. C. McKenzie,  A. F. Morrison,  K. Nanda,  F. Plasser,  D. R. Rehn,  
 M. L. Vidal,  Zhi-Qiang You,  Ying Zhu,  B. Alam,  B. Albrecht,  
 A. Aldossary,  E. Alguire,  J. H. Andersen,  D. Barton,  K. Begam,  A. Behn,  
 Y. A. Bernard,  E. J. Berquist,  H. Burton,  A. Carreras,  K. Carter-Fenk,  
 R. Chakraborty,  A. D. Chien,  K. D. Closser,  V. Cofer-Shabica,  
 S. Dasgupta,  Jia Deng,  M. de Wergifosse,  M. Diedenhofen,  Hainam Do,  
 S. Ehlert,  Po-Tung Fang,  S. Fatehi,  Qingguo Feng,  T. Friedhoff,  
 J. Gayvert,  Qinghui Ge,  G. Gidofalvi,  M. Goldey,  J. Gomes,  
 C. Gonzalez-Espinoza,  S. Gulania,  A. Gunina,  M. W. D. Hanson-Heine,  
 P. H. P. Harbach,  A. W. Hauser,  M. F. Herbst,  M. Hernandez Vera,  
 M. Hodecker,  Z. C. Holden,  S. Houck,  Xunkun Huang,  Kerwin Hui,  
 B. C. Huynh,  M. Ivanov,  Hyunjun Ji,  Hanjie Jiang,  B. Kaduk,  S. Kaehler,  
 K. Khistyaev,  Jaehoon Kim,  P. Klunzinger,  Z. Koczor-Benda,  
 Joong Hoon Koh,  D. Kosenkov,  L. Koulias,  T. Kowalczyk,  C. M. Krauter,  
 K. Kue,  A. Kunitsa,  T. Kus,  A. Landau,  K. V. Lawler,  D. Lefrancois,  
 S. Lehtola,  Rain Li,  Yi-Pei Li,  Jiashu Liang,  M. Liebenthal,  
 Hung-Hsuan Lin,  You-Sheng Lin,  Fenglai Liu,  Kuan-Yu Liu,  
 M. Loipersberger,  A. Luenser,  A. Manjanath,  P. Manohar,  E. Mansoor,  
 S. F. Manzer,  Shan-Ping Mao,  A. V. Marenich,  T. Markovich,  S. Mason,  
 S. A. Maurer,  P. F. McLaughlin,  M. F. S. J. Menger,  J.-M. Mewes,  
 S. A. Mewes,  P. Morgante,  J. W. Mullinax,  K. J. Oosterbaan,  G. Paran,  
 Alexander C. Paul,  Suranjan K. Paul,  F. Pavosevic,  Zheng Pei,  S. Prager,  
 E. I. Proynov,  E. Ramos,  B. Rana,  A. E. Rask,  A. Rettig,  R. M. Richard,  
 F. Rob,  E. Rossomme,  T. Scheele,  M. Scheurer,  M. Schneider,  
 N. Sergueev,  S. M. Sharada,  W. Skomorowski,  D. W. Small,  C. J. Stein,  
 Yu-Chuan Su,  E. J. Sundstrom,  Zhen Tao,  J. Thirman,  T. Tsuchimochi,  
 N. M. Tubman,  S. P. Veccham,  O. Vydrov,  J. Wenzel,  J. Witte,  A. Yamada,  
 Kun Yao,  S. Yeganeh,  S. R. Yost,  A. Zech,  Igor Ying Zhang,  Xing Zhang,  
 Yu Zhang,  D. Zuev,  A. Aspuru-Guzik,  A. T. Bell,  N. A. Besley,  
 K. B. Bravaya,  B. R. Brooks,  D. Casanova,  Jeng-Da Chai,  S. Coriani,  
 C. J. Cramer,  A. E. DePrince, III,  R. A. DiStasio Jr.,  A. Dreuw,  
 B. D. Dunietz,  T. R. Furlani,  W. A. Goddard III,  S. Grimme,  
 S. Hammes-Schiffer,  T. Head-Gordon,  W. J. Hehre,  Chao-Ping Hsu,  
 T.-C. Jagau,  Yousung Jung,  A. Klamt,  Jing Kong,  D. S. Lambrecht,  
 WanZhen Liang,  N. J. Mayhall,  C. W. McCurdy,  J. B. Neaton,  
 C. Ochsenfeld,  J. A. Parkhill,  R. Peverati,  V. A. Rassolov,  Yihan Shao,  
 L. V. Slipchenko,  T. Stauch,  R. P. Steele,  J. E. Subotnik,  
 A. J. W. Thom,  A. Tkatchenko,  D. G. Truhlar,  T. Van Voorhis,  
 T. A. Wesolowski,  K. B. Whaley,  H. L. Woodcock III,  P. M. Zimmerman,  
 S. Faraji,  P. M. W. Gill,  M. Head-Gordon,  J. M. Herbert,  A. I. Krylov

 Additional authors for Version 5.4.1: 
 S. Kotaru,  Shaozhi Li,  Xiangyuan Li,  F. Matz,  A. Molle,  Haisheng Ren,  
 Yingli Su,  Hung-Yi Tsai,  C. Utku,  Fang Wang

 Contributors to earlier versions of Q-Chem not listed above: 
 R. D. Adamson,  B. Austin,  R. Baer,  J. Baker,  G. J. O. Beran,  
 K. Brandhorst,  S. T. Brown,  E. F. C. Byrd,  A. K. Chakraborty,  
 G. K. L. Chan,  Chun-Min Chang,  Yunqing Chen,  C.-L. Cheng,  
 Siu Hung Chien,  D. M. Chipman,  D. L. Crittenden,  H. Dachsel,  
 R. J. Doerksen,  A. D. Dutoi,  R. G. Edgar,  J. Fosso-Tande,  
 L. Fusti-Molnar,  D. Ghosh,  A. Ghysels,  A. Golubeva-Zadorozhnaya,  
 J. Gonthier,  M. S. Gordon,  S. R. Gwaltney,  G. Hawkins,  J. E. Herr,  
 A. Heyden,  S. Hirata,  E. G. Hohenstein,  G. Kedziora,  F. J. Keil,  
 C. Kelley,  Jihan Kim,  R. A. King,  R. Z. Khaliullin,  P. P. Korambath,  
 W. Kurlancheek,  A. Laurent,  A. M. Lee,  M. S. Lee,  S. V. Levchenko,  
 Ching Yeh Lin,  D. Liotard,  E. Livshits,  R. C. Lochan,  I. Lotan,  
 L. A. Martinez-Martinez,  P. E. Maslen,  N. Nair,  D. P. O'Neill,  
 D. Neuhauser,  E. Neuscamman,  C. M. Oana,  R. Olivares-Amaya,  R. Olson,  
 T. M. Perrine,  B. Peters,  P. A. Pieniazek,  A. Prociuk,  Y. M. Rhee,  
 J. Ritchie,  M. A. Rohrdanz,  E. Rosta,  N. J. Russ,  H. F. Schaefer III,  
 M. W. Schmidt,  N. E. Schultz,  S. Sharma,  N. Shenvi,  C. D. Sherrill,  
 A. C. Simmonett,  A. Sodt,  T. Stein,  D. Stuck,  K. S. Thanthiriwatte,  
 V. Vanovschi,  L. Vogt,  Tao Wang,  A. Warshel,  M. A. Watson,  
 C. F. Williams,  Q. Wu,  X. Xu,  Jun Yang,  W. Zhang,  Yan Zhao

 Please cite Q-Chem as follows:
 Y. Shao et al., Mol. Phys. 113, 184-215 (2015)
 DOI: 10.1080/00268976.2014.952696

 Q-Chem 5.4.1 for Intel X86 EM64T Linux

 Parts of Q-Chem use Armadillo 9.900.5 (Nocturnal Misbehaviour).
 http://arma.sourceforge.net/

 Q-Chem begins on Thu Aug 11 11:19:05 2022  

orc44
 Host: 0

     Scratch files written to /scratch/yongbin/qchem2109//
 Processing $rem in /home/users/yongbin/software/yongbin_quantum/config/preferences:
 Processing $rem in /home/users/yongbin/.qchemrc:
 Core orbitals will be frozen

 Checking the input file for inconsistencies... 	...done.

--------------------------------------------------------------
User input:
--------------------------------------------------------------
$comment
Hydrogen molecule
$end

$molecule
0 1
H 0.0 0.0 0.0
H 0.0 0.0 1.8 
$end

$rem
   print_qis = true
   BASIS                = 6-31g 
   SYMMETRY             = false
   CC_SYMMETRY          = false
   METHOD               = eom-ccsd
   EE_SINGLETS          = [3]  ! Compute two EOM-EE singlet excited states
   EE_TRIPLETS          = [3]  ! Compute two EOM-EE triplet excited states
   CC_REF_PROP          = true ! Compute ground state properties
   CC_EOM_PROP          = true ! Compute excited state properties
!   CC_OSFNO             = true
   GUI                  = 2
$end
--------------------------------------------------------------
 ----------------------------------------------------------------
             Standard Nuclear Orientation (Angstroms)
    I     Atom           X                Y                Z
 ----------------------------------------------------------------
    1      H       0.0000000000     0.0000000000    -0.9000000000
    2      H       0.0000000000     0.0000000000     0.9000000000
 ----------------------------------------------------------------
 Molecular Point Group                 D*h   NOp =***
 Largest Abelian Subgroup              D2h   NOp =  1
 Nuclear Repulsion Energy =           0.29398734 hartrees
 There are        1 alpha and        1 beta electrons
 Requested basis set is 6-31G
 There are 4 shells and 4 basis functions
 Total memory of 2000 MB is distributed as follows: 
   MEM_STATIC is set to 192 MB
   QALLOC/CCMAN JOB total memory use is  1808 MB
 Warning: actual memory use might exceed 2000 MB

 Total QAlloc Memory Limit   2000 MB
 Mega-Array Size       188 MB
 MEM_STATIC part       192 MB

                       Distance Matrix (Angstroms)
             H (  1)
   H (  2)  1.800000

 A cutoff of  1.0D-14 yielded     10 shell pairs
 There are        10 function pairs
 Smallest overlap matrix eigenvalue = 2.47E-01

 Scale SEOQF with 1.000000e+00/1.000000e+00/1.000000e+00

 Standard Electronic Orientation quadrupole field applied
 Nucleus-field energy     =    -0.0000000017 hartrees
 Guess from superposition of atomic densities
 Warning:  Energy on first SCF cycle will be non-variational
 SAD guess density has 2.000000 electrons

 -----------------------------------------------------------------------
  General SCF calculation program by
  Eric Jon Sundstrom, Paul Horn, Yuezhi Mao, Dmitri Zuev, Alec White,
  David Stuck, Shaama M.S., Shane Yost, Joonho Lee, David Small,
  Daniel Levine, Susi Lehtola, Hugh Burton, Evgeny Epifanovsky,
  Bang C. Huynh
 -----------------------------------------------------------------------
 Hartree-Fock
 using 20 threads for integral computing
 -------------------------------------------------------
 OpenMP Integral computing Module                
 Release: version 1.0, May 2013, Q-Chem Inc. Pittsburgh 
 -------------------------------------------------------
 A restricted SCF calculation will be
 performed using DIIS
 SCF converges when DIIS error is below 1.0e-08
 ---------------------------------------
  Cycle       Energy         DIIS error
 ---------------------------------------
    1      -0.7026816286      4.32e-02  
    2      -0.9460511088      5.73e-04  
    3      -0.9460521757      8.83e-05  
    4      -0.9460522017      2.60e-09  Convergence criterion met
 ---------------------------------------
 SCF time:   CPU 0.41s  wall 0.00s 
 SCF   energy in the final basis set =       -0.9460522017
 Total energy in the final basis set =       -0.9460522017


 ------------------------------------------------------------------------------

   CCMAN2: suite of methods based on coupled cluster
           and equation of motion theories.

   Components:
   * libvmm-1.3-trunk
     by Evgeny Epifanovsky, Ilya Kaliman.
   * libtensor-2.5-trunk
     by Evgeny Epifanovsky, Michael Wormit, Dmitry Zuev, Sam Manzer, 
        Ilya Kaliman.
   * libcc-2.5-trunk
     by Evgeny Epifanovsky, Arik Landau, Tomasz Kus, Kirill Khistyaev, 
        Dmitry Zuev, Prashant Manohar, Xintian Feng, Anna Krylov, 
        Matthew Goldey, Alec White, Thomas Jagau, Kaushik Nanda, 
        Anastasia Gunina, Alexander Kunitsa, Joonho Lee.

   CCMAN original authors:
   Anna I. Krylov, C. David Sherrill, Steven R. Gwaltney,
   Edward F. C. Byrd (2000)
   Sergey V. Levchenko, Lyudmila V. Slipchenko, Tao Wang,
   Ana-Maria C. Cristian (2003)
   Piotr A. Pieniazek, C. Melania Oana, Evgeny Epifanovsky (2007)
   Prashant Manohar (2009)

 ------------------------------------------------------------------------------


 Allocating and initializing 1808MB of RAM...
 Calculation will run on 20 cores.


 Occupation and symmetry of molecular orbitals

 Point group: C1 (1 irreducible representation).

                           A     All 
 -------------------------------------
 All molecular orbitals:
  - Alpha                  4     4   
  - Beta                   4     4   
 -------------------------------------
 Alpha orbitals:
  - Frozen occupied        0     0   
  - Active occupied        1     1   
  - Active virtual         3     3   
  - Frozen virtual         0     0   
 -------------------------------------
 Beta orbitals:
  - Frozen occupied        0     0   
  - Active occupied        1     1   
  - Active virtual         3     3   
  - Frozen virtual         0     0   
 -------------------------------------

 Import integrals:   CPU 0.00 s  wall 0.00 s

 Import integrals:   CPU 0.19 s  wall 0.02 s

 Run QIS:   CPU 0.00 s  wall 0.00 s

 MP2 amplitudes:   CPU 0.00 s  wall 0.00 s

Running a double precision version
           CCSD T amplitudes will be solved using DIIS.

           Start     Size      MaxIter   EConv     TConv     
           3         7         100       1.00e-06  1.00e-04  
 ------------------------------------------------------------------------------
           Energy (a.u.)   Ediff      Tdiff       Comment
 ------------------------------------------------------------------------------
            -0.98464450                           
     1      -1.00323403   1.86e-02   1.78e-01     
     2      -1.01385613   1.06e-02   9.64e-02     
     3      -1.01967970   5.82e-03   5.96e-02     
     4      -1.02641591   6.74e-03   6.78e-02     Switched to DIIS steps.
     5      -1.02586459   5.51e-04   9.94e-04     
     6      -1.02617061   3.06e-04   2.90e-03     
     7      -1.02613303   3.76e-05   4.14e-04     
     8      -1.02613515   2.12e-06   2.61e-05     
     9      -1.02613537   2.25e-07   2.86e-06     
 ------------------------------------------------------------------------------
            -1.02613537                           CCSD T converged.

End of double precision
 SCF energy                 = -0.94605220
 MP2 energy                 = -0.98464450
 CCSD correlation energy    = -0.08008317
 CCSD total energy          = -1.02613537

 CCSD  T1^2 = 0.0040  T2^2 = 0.2056  Leading amplitudes:

 Amplitude    Orbitals with energies
 0.0449160940       1 (A) A                   ->    4 (A) A                    
                   -0.3994                          1.0334                     
 0.0449160940       1 (A) B                   ->    4 (A) B                    
                   -0.3994                          1.0334                     

 Amplitude    Orbitals with energies
 -0.4421180578       1 (A) A       1 (A) B     ->    2 (A) A       2 (A) B      
                    -0.3994       -0.3994            0.0031        0.0031       
  0.4421180578       1 (A) A       1 (A) B     ->    2 (A) B       2 (A) A      
                    -0.3994       -0.3994            0.0031        0.0031       
  0.4421180578       1 (A) B       1 (A) A     ->    2 (A) A       2 (A) B      
                    -0.3994       -0.3994            0.0031        0.0031       
 -0.4421180578       1 (A) B       1 (A) A     ->    2 (A) B       2 (A) A      
                    -0.3994       -0.3994            0.0031        0.0031       

 Computing CCSD intermediates for later calculations in double precision
 Finished.

Running a double precision version
           CCSD Lambda amplitudes will be solved using DIIS.
           Start     Size      MaxIter   EConv     LConv     
           3         7         100       1.00e-06  1.00e-04  
 ------------------------------------------------------------------------------
            Enorm      Ldiff       Comment
 ------------------------------------------------------------------------------
     1     8.59e-02   8.44e-02     
     2     3.61e-02   3.56e-02     
     3     1.87e-02   1.84e-02     
     4     4.77e-04   1.93e-02     Switched to DIIS steps.
     5     9.43e-05   7.47e-05     
     6     1.10e-05   5.69e-05     
     7     1.27e-06   1.68e-06     
     8     2.33e-16   9.73e-07     
 ------------------------------------------------------------------------------
                                   CCSD Lambda converged.

 Computing density matrices in double precision...
 Computing density matrices... Done.
 Reference state properties
 Dipole moment (a.u.): 0.000000 (X -0.000000, Y -0.000000, Z 0.000000)
 R-squared (a.u.): 11.102763 (XX 1.969083, YY 1.969083, ZZ 7.164596)
 Gauge origin (a.u.): (0.000000, 0.000000, 0.000000)
 Angular momentum (a.u.) against gauge origin: 
 (X 0.000000i, Y 0.000000i, Z 0.000000i)
 Traces of the OPDMs: Tr(AA) 1.000000, Tr(BB) 1.000000
 Density matrix was written to a file for further analysis.

 CCSD calculation:   CPU 0.62 s  wall 0.41 s

        Solving for EOMEE-CCSD A singlet states.

Running a double precision version
        EOMEE-CCSD/MP2 right amplitudes will be solved using Davidson.
        Amplitudes will be solved using standard  algorithm.
     Hard-coded thresholds: 
     LinDepThresh=1.00e-15  NormThresh=1.00e-06  ReorthogonThresh=1.00e-02

      Roots     MaxVec    MaxIter   Precond   Conv      Shift    
      3         120       60        1         1.00e-05  0.00e+00  
 ------------------------------------------------------------------------------
      Iter ConvRoots NVecs ResNorm Current eigenvalues (eV)
 ------------------------------------------------------------------------------
      0    0      3     8.64e-02   10.2225   32.9963   33.0061   
      1    2      6     3.13e-02   9.7518*  27.9090*  28.9717   
      2    2      7     1.62e-02   9.7518*  12.5741   27.9090*  
      3    2      8     9.05e-05   9.7518*  11.3741   27.9090*  
      4    3      9     6.64e-31   9.7518*  11.3734*  27.9090*  

     Davidson procedure converged

 EOMEE transition 1/A
 Total energy = -0.66776159 a.u.  Excitation energy = 9.75184654 eV.
 R0^2 = 0.0000  R1^2 = 0.9822  R2^2 = 0.0178  Res^2 = 9.53e-31
 Conv-d = yes

 Amplitude    Transitions between orbitals
 -0.7007656051       1 (A) A                   ->    2 (A) A                    
 -0.7007656051       1 (A) B                   ->    2 (A) B                    
  0.0066026841       1 (A) A                   ->    3 (A) A                    
  0.0066026841       1 (A) B                   ->    3 (A) B                    
  0.0830616646       1 (A) A       1 (A) B     ->    2 (A) A       4 (A) B      
  0.0830616646       1 (A) A       1 (A) B     ->    4 (A) A       2 (A) B      
 -0.0830616646       1 (A) A       1 (A) B     ->    4 (A) B       2 (A) A      
 -0.0830616646       1 (A) A       1 (A) B     ->    2 (A) B       4 (A) A      
 -0.0830616646       1 (A) B       1 (A) A     ->    2 (A) A       4 (A) B      
 -0.0830616646       1 (A) B       1 (A) A     ->    4 (A) A       2 (A) B      
  0.0830616646       1 (A) B       1 (A) A     ->    2 (A) B       4 (A) A      
  0.0830616646       1 (A) B       1 (A) A     ->    4 (A) B       2 (A) A      
  0.0445503216       1 (A) A       1 (A) B     ->    3 (A) A       4 (A) B      
  0.0445503216       1 (A) A       1 (A) B     ->    4 (A) A       3 (A) B      
 -0.0445503216       1 (A) A       1 (A) B     ->    4 (A) B       3 (A) A      
 -0.0445503216       1 (A) A       1 (A) B     ->    3 (A) B       4 (A) A      
 -0.0445503216       1 (A) B       1 (A) A     ->    3 (A) A       4 (A) B      
 -0.0445503216       1 (A) B       1 (A) A     ->    4 (A) A       3 (A) B      
  0.0445503216       1 (A) B       1 (A) A     ->    3 (A) B       4 (A) A      
  0.0445503216       1 (A) B       1 (A) A     ->    4 (A) B       3 (A) A      

              Summary of significant orbitals:

               Number  Type             Irrep      Energy
               1       Occ  Alpha       1 (A)     -0.3994
               1       Occ  Beta        1 (A)     -0.3994
               2       Vir  Alpha       2 (A)      0.0031
               3       Vir  Alpha       3 (A)      1.0157
               4       Vir  Alpha       4 (A)      1.0334
               2       Vir  Beta        2 (A)      0.0031
               3       Vir  Beta        3 (A)      1.0157
               4       Vir  Beta        4 (A)      1.0334


 EOMEE transition 2/A
 Total energy = -0.60817080 a.u.  Excitation energy = 11.37339438 eV.
 R0^2 = 0.1398  R1^2 = 0.0212  R2^2 = 0.9788  Res^2 = 8.25e-31
 Conv-d = yes

 Amplitude    Transitions between orbitals
  0.1028602753       1 (A) A                   ->    4 (A) A                    
  0.1028602753       1 (A) B                   ->    4 (A) B                    
 -0.9844295895       1 (A) A       1 (A) B     ->    2 (A) A       2 (A) B      
  0.9844295895       1 (A) A       1 (A) B     ->    2 (A) B       2 (A) A      
  0.9844295895       1 (A) B       1 (A) A     ->    2 (A) A       2 (A) B      
 -0.9844295895       1 (A) B       1 (A) A     ->    2 (A) B       2 (A) A      
 -0.0622455963       1 (A) A       1 (A) B     ->    2 (A) A       3 (A) B      
 -0.0622455963       1 (A) A       1 (A) B     ->    3 (A) A       2 (A) B      
  0.0622455963       1 (A) A       1 (A) B     ->    3 (A) B       2 (A) A      
  0.0622455963       1 (A) A       1 (A) B     ->    2 (A) B       3 (A) A      
  0.0622455963       1 (A) B       1 (A) A     ->    2 (A) A       3 (A) B      
  0.0622455963       1 (A) B       1 (A) A     ->    3 (A) A       2 (A) B      
 -0.0622455963       1 (A) B       1 (A) A     ->    2 (A) B       3 (A) A      
 -0.0622455963       1 (A) B       1 (A) A     ->    3 (A) B       2 (A) A      
  0.0340462329       1 (A) A       1 (A) B     ->    4 (A) A       4 (A) B      
 -0.0340462329       1 (A) A       1 (A) B     ->    4 (A) B       4 (A) A      
 -0.0340462329       1 (A) B       1 (A) A     ->    4 (A) A       4 (A) B      
  0.0340462329       1 (A) B       1 (A) A     ->    4 (A) B       4 (A) A      
  0.0288051442       1 (A) A       1 (A) B     ->    3 (A) A       3 (A) B      
 -0.0288051442       1 (A) A       1 (A) B     ->    3 (A) B       3 (A) A      
 -0.0288051442       1 (A) B       1 (A) A     ->    3 (A) A       3 (A) B      
  0.0288051442       1 (A) B       1 (A) A     ->    3 (A) B       3 (A) A      

              Summary of significant orbitals:

               Number  Type             Irrep      Energy
               1       Occ  Alpha       1 (A)     -0.3994
               1       Occ  Beta        1 (A)     -0.3994
               2       Vir  Alpha       2 (A)      0.0031
               3       Vir  Alpha       3 (A)      1.0157
               4       Vir  Alpha       4 (A)      1.0334
               2       Vir  Beta        2 (A)      0.0031
               3       Vir  Beta        3 (A)      1.0157
               4       Vir  Beta        4 (A)      1.0334


 EOMEE transition 3/A
 Total energy = -0.00049820 a.u.  Excitation energy = 27.90900669 eV.
 R0^2 = 0.0000  R1^2 = 0.6687  R2^2 = 0.3313  Res^2 = 2.14e-31
 Conv-d = yes

 Amplitude    Transitions between orbitals
  0.5776680476       1 (A) A                   ->    3 (A) A                    
  0.5776680476       1 (A) B                   ->    3 (A) B                    
 -0.0256785500       1 (A) A                   ->    2 (A) A                    
 -0.0256785500       1 (A) B                   ->    2 (A) B                    
 -0.4044114300       1 (A) A       1 (A) B     ->    2 (A) A       4 (A) B      
 -0.4044114300       1 (A) A       1 (A) B     ->    4 (A) A       2 (A) B      
  0.4044114300       1 (A) A       1 (A) B     ->    4 (A) B       2 (A) A      
  0.4044114300       1 (A) A       1 (A) B     ->    2 (A) B       4 (A) A      
  0.4044114300       1 (A) B       1 (A) A     ->    2 (A) A       4 (A) B      
  0.4044114300       1 (A) B       1 (A) A     ->    4 (A) A       2 (A) B      
 -0.4044114300       1 (A) B       1 (A) A     ->    2 (A) B       4 (A) A      
 -0.4044114300       1 (A) B       1 (A) A     ->    4 (A) B       2 (A) A      
 -0.0457343862       1 (A) A       1 (A) B     ->    3 (A) A       4 (A) B      
 -0.0457343862       1 (A) A       1 (A) B     ->    4 (A) A       3 (A) B      
  0.0457343862       1 (A) A       1 (A) B     ->    4 (A) B       3 (A) A      
  0.0457343862       1 (A) A       1 (A) B     ->    3 (A) B       4 (A) A      
  0.0457343862       1 (A) B       1 (A) A     ->    3 (A) A       4 (A) B      
  0.0457343862       1 (A) B       1 (A) A     ->    4 (A) A       3 (A) B      
 -0.0457343862       1 (A) B       1 (A) A     ->    3 (A) B       4 (A) A      
 -0.0457343862       1 (A) B       1 (A) A     ->    4 (A) B       3 (A) A      

              Summary of significant orbitals:

               Number  Type             Irrep      Energy
               1       Occ  Alpha       1 (A)     -0.3994
               1       Occ  Beta        1 (A)     -0.3994
               2       Vir  Alpha       2 (A)      0.0031
               3       Vir  Alpha       3 (A)      1.0157
               4       Vir  Alpha       4 (A)      1.0334
               2       Vir  Beta        2 (A)      0.0031
               3       Vir  Beta        3 (A)      1.0157
               4       Vir  Beta        4 (A)      1.0334


 EEs and amplitudes of EOMEE has be exported to fchk file
Running a double precision version
      EOM-CCSD/MP2 left amplitudes will be solved using Davidson.
        Amplitudes will be solved using MOM  algorithm.
     Hard-coded thresholds: 
     LinDepThresh=1.00e-15  NormThresh=1.00e-06  ReorthogonThresh=1.00e-02

      Roots     MaxVec    MaxIter   Precond   Conv      Shift    
      3         120       60        1         1.00e-05  0.00e+00  
 ------------------------------------------------------------------------------
      Iter ConvRoots NVecs ResNorm Current eigenvalues (eV)
 ------------------------------------------------------------------------------
      0    0      3     2.87e-03   9.7518   11.3734   27.9090   
      1    2      6     4.22e-05   9.7518*  11.3734   27.9090*  
      2    3      7     1.86e-06   9.7518*  11.3734*  27.9090*  

     Davidson procedure converged

 Excited state properties for  EOMEE-CCSD transition 1/A
 Dipole moment (a.u.): 0.000000 (X -0.000000, Y -0.000000, Z 0.000000)
 R-squared (a.u.): 13.456695 (XX 2.355270, YY 2.355270, ZZ 8.746156)
 Gauge origin (a.u.): (0.000000, 0.000000, 0.000000)
 Angular momentum (a.u.) against gauge origin: 
 (X 0.000000i, Y 0.000000i, Z 0.000000i)
 Traces of the OPDMs: Tr(AA) 1.000000, Tr(BB) 1.000000

 Excited state properties for  EOMEE-CCSD transition 2/A
 Dipole moment (a.u.): 0.000000 (X -0.000000, Y -0.000000, Z 0.000000)
 R-squared (a.u.): 13.979764 (XX 2.216962, YY 2.216962, ZZ 9.545840)
 Gauge origin (a.u.): (0.000000, 0.000000, 0.000000)
 Angular momentum (a.u.) against gauge origin: 
 (X 0.000000i, Y 0.000000i, Z 0.000000i)
 Traces of the OPDMs: Tr(AA) 1.000000, Tr(BB) 1.000000

 Excited state properties for  EOMEE-CCSD transition 3/A
 Dipole moment (a.u.): 0.000000 (X -0.000000, Y -0.000000, Z 0.000000)
 R-squared (a.u.): 14.004160 (XX 2.452908, YY 2.452908, ZZ 9.098344)
 Gauge origin (a.u.): (0.000000, 0.000000, 0.000000)
 Angular momentum (a.u.) against gauge origin: 
 (X 0.000000i, Y 0.000000i, Z 0.000000i)
 Traces of the OPDMs: Tr(AA) 1.000000, Tr(BB) 1.000000

        Solving for EOMEE-CCSD A triplet states.

Running a double precision version
        EOMEE-CCSD/MP2 right amplitudes will be solved using Davidson.
        Amplitudes will be solved using standard  algorithm.
     Hard-coded thresholds: 
     LinDepThresh=1.00e-15  NormThresh=1.00e-06  ReorthogonThresh=1.00e-02

      Roots     MaxVec    MaxIter   Precond   Conv      Shift    
      3         120       60        1         1.00e-05  0.00e+00  
 ------------------------------------------------------------------------------
      Iter ConvRoots NVecs ResNorm Current eigenvalues (eV)
 ------------------------------------------------------------------------------
      0    0      3     7.05e-03   1.3513   28.9511   29.1743   
      1    3      6     1.08e-30   1.2847*  27.5533*  27.6545*  

     Davidson procedure converged

 EOMEE transition 1/A
 Total energy = -0.97892202 a.u.  Excitation energy = 1.28474052 eV.
 R0^2 = 0.0000  R1^2 = 0.9992  R2^2 = 0.0008  Res^2 = 1.04e-32
 Conv-d = yes

 Amplitude    Transitions between orbitals
 -0.7028592831       1 (A) A                   ->    2 (A) A                    
  0.7028592831       1 (A) B                   ->    2 (A) B                    
 -0.0745975816       1 (A) A                   ->    3 (A) A                    
  0.0745975816       1 (A) B                   ->    3 (A) B                    
 -0.0204692726       1 (A) A       1 (A) B     ->    2 (A) A       4 (A) B      
  0.0204692726       1 (A) A       1 (A) B     ->    4 (A) A       2 (A) B      
  0.0204692726       1 (A) A       1 (A) B     ->    4 (A) B       2 (A) A      
 -0.0204692726       1 (A) A       1 (A) B     ->    2 (A) B       4 (A) A      
  0.0204692726       1 (A) B       1 (A) A     ->    2 (A) A       4 (A) B      
 -0.0204692726       1 (A) B       1 (A) A     ->    4 (A) A       2 (A) B      
  0.0204692726       1 (A) B       1 (A) A     ->    2 (A) B       4 (A) A      
 -0.0204692726       1 (A) B       1 (A) A     ->    4 (A) B       2 (A) A      
 -0.0022445044       1 (A) A       1 (A) B     ->    3 (A) A       4 (A) B      
  0.0022445044       1 (A) A       1 (A) B     ->    4 (A) A       3 (A) B      
  0.0022445044       1 (A) A       1 (A) B     ->    4 (A) B       3 (A) A      
 -0.0022445044       1 (A) A       1 (A) B     ->    3 (A) B       4 (A) A      
  0.0022445044       1 (A) B       1 (A) A     ->    3 (A) A       4 (A) B      
 -0.0022445044       1 (A) B       1 (A) A     ->    4 (A) A       3 (A) B      
  0.0022445044       1 (A) B       1 (A) A     ->    3 (A) B       4 (A) A      
 -0.0022445044       1 (A) B       1 (A) A     ->    4 (A) B       3 (A) A      

              Summary of significant orbitals:

               Number  Type             Irrep      Energy
               1       Occ  Alpha       1 (A)     -0.3994
               1       Occ  Beta        1 (A)     -0.3994
               2       Vir  Alpha       2 (A)      0.0031
               3       Vir  Alpha       3 (A)      1.0157
               4       Vir  Alpha       4 (A)      1.0334
               2       Vir  Beta        2 (A)      0.0031
               3       Vir  Beta        3 (A)      1.0157
               4       Vir  Beta        4 (A)      1.0334


 EOMEE transition 2/A
 Total energy = -0.01356877 a.u.  Excitation energy = 27.55333851 eV.
 R0^2 = 0.0000  R1^2 = 0.7901  R2^2 = 0.2099  Res^2 = 7.52e-31
 Conv-d = yes

 Amplitude    Transitions between orbitals
  0.6285426188       1 (A) A                   ->    4 (A) A                    
 -0.6285426188       1 (A) B                   ->    4 (A) B                    
  0.3239354509       1 (A) A       1 (A) B     ->    2 (A) A       3 (A) B      
 -0.3239354509       1 (A) A       1 (A) B     ->    3 (A) A       2 (A) B      
 -0.3239354509       1 (A) A       1 (A) B     ->    3 (A) B       2 (A) A      
  0.3239354509       1 (A) A       1 (A) B     ->    2 (A) B       3 (A) A      
 -0.3239354509       1 (A) B       1 (A) A     ->    2 (A) A       3 (A) B      
  0.3239354509       1 (A) B       1 (A) A     ->    3 (A) A       2 (A) B      
 -0.3239354509       1 (A) B       1 (A) A     ->    2 (A) B       3 (A) A      
  0.3239354509       1 (A) B       1 (A) A     ->    3 (A) B       2 (A) A      

              Summary of significant orbitals:

               Number  Type             Irrep      Energy
               1       Occ  Alpha       1 (A)     -0.3994
               1       Occ  Beta        1 (A)     -0.3994
               2       Vir  Alpha       2 (A)      0.0031
               3       Vir  Alpha       3 (A)      1.0157
               4       Vir  Alpha       4 (A)      1.0334
               2       Vir  Beta        2 (A)      0.0031
               3       Vir  Beta        3 (A)      1.0157
               4       Vir  Beta        4 (A)      1.0334


 EOMEE transition 3/A
 Total energy = -0.00985229 a.u.  Excitation energy = 27.65446899 eV.
 R0^2 = 0.0000  R1^2 = 0.7649  R2^2 = 0.2351  Res^2 = 2.47e-30
 Conv-d = yes

 Amplitude    Transitions between orbitals
  0.6117740189       1 (A) A                   ->    3 (A) A                    
 -0.6117740189       1 (A) B                   ->    3 (A) B                    
 -0.0903567976       1 (A) A                   ->    2 (A) A                    
  0.0903567976       1 (A) B                   ->    2 (A) B                    
  0.3389713787       1 (A) A       1 (A) B     ->    2 (A) A       4 (A) B      
 -0.3389713787       1 (A) A       1 (A) B     ->    4 (A) A       2 (A) B      
 -0.3389713787       1 (A) A       1 (A) B     ->    4 (A) B       2 (A) A      
  0.3389713787       1 (A) A       1 (A) B     ->    2 (A) B       4 (A) A      
 -0.3389713787       1 (A) B       1 (A) A     ->    2 (A) A       4 (A) B      
  0.3389713787       1 (A) B       1 (A) A     ->    4 (A) A       2 (A) B      
 -0.3389713787       1 (A) B       1 (A) A     ->    2 (A) B       4 (A) A      
  0.3389713787       1 (A) B       1 (A) A     ->    4 (A) B       2 (A) A      
  0.0516391648       1 (A) A       1 (A) B     ->    3 (A) A       4 (A) B      
 -0.0516391648       1 (A) A       1 (A) B     ->    4 (A) A       3 (A) B      
 -0.0516391648       1 (A) A       1 (A) B     ->    4 (A) B       3 (A) A      
  0.0516391648       1 (A) A       1 (A) B     ->    3 (A) B       4 (A) A      
 -0.0516391648       1 (A) B       1 (A) A     ->    3 (A) A       4 (A) B      
  0.0516391648       1 (A) B       1 (A) A     ->    4 (A) A       3 (A) B      
 -0.0516391648       1 (A) B       1 (A) A     ->    3 (A) B       4 (A) A      
  0.0516391648       1 (A) B       1 (A) A     ->    4 (A) B       3 (A) A      

              Summary of significant orbitals:

               Number  Type             Irrep      Energy
               1       Occ  Alpha       1 (A)     -0.3994
               1       Occ  Beta        1 (A)     -0.3994
               2       Vir  Alpha       2 (A)      0.0031
               3       Vir  Alpha       3 (A)      1.0157
               4       Vir  Alpha       4 (A)      1.0334
               2       Vir  Beta        2 (A)      0.0031
               3       Vir  Beta        3 (A)      1.0157
               4       Vir  Beta        4 (A)      1.0334


 EEs and amplitudes of EOMEE has be exported to fchk file
Running a double precision version
      EOM-CCSD/MP2 left amplitudes will be solved using Davidson.
        Amplitudes will be solved using MOM  algorithm.
     Hard-coded thresholds: 
     LinDepThresh=1.00e-15  NormThresh=1.00e-06  ReorthogonThresh=1.00e-02

      Roots     MaxVec    MaxIter   Precond   Conv      Shift    
      3         120       60        1         1.00e-05  0.00e+00  
 ------------------------------------------------------------------------------
      Iter ConvRoots NVecs ResNorm Current eigenvalues (eV)
 ------------------------------------------------------------------------------
      0    1      3     1.26e-03   1.2847   27.5533*  27.6545   
      1    3      5     7.30e-31   1.2847*  27.5533*  27.6545*  

     Davidson procedure converged

 Excited state properties for  EOMEE-CCSD transition 1/A
 Dipole moment (a.u.): 0.000000 (X -0.000000, Y -0.000000, Z 0.000000)
 R-squared (a.u.): 11.882133 (XX 1.875860, YY 1.875860, ZZ 8.130414)
 Gauge origin (a.u.): (0.000000, 0.000000, 0.000000)
 Angular momentum (a.u.) against gauge origin: 
 (X 0.000000i, Y 0.000000i, Z 0.000000i)
 Traces of the OPDMs: Tr(AA) 1.000000, Tr(BB) 1.000000

 Excited state properties for  EOMEE-CCSD transition 2/A
 Dipole moment (a.u.): 0.000000 (X -0.000000, Y -0.000000, Z 0.000000)
 R-squared (a.u.): 12.815872 (XX 2.435751, YY 2.435751, ZZ 7.944371)
 Gauge origin (a.u.): (0.000000, 0.000000, 0.000000)
 Angular momentum (a.u.) against gauge origin: 
 (X 0.000000i, Y 0.000000i, Z 0.000000i)
 Traces of the OPDMs: Tr(AA) 1.000000, Tr(BB) 1.000000

 Excited state properties for  EOMEE-CCSD transition 3/A
 Dipole moment (a.u.): 0.000000 (X -0.000000, Y -0.000000, Z 0.000000)
 R-squared (a.u.): 14.190974 (XX 2.458994, YY 2.458994, ZZ 9.272986)
 Gauge origin (a.u.): (0.000000, 0.000000, 0.000000)
 Angular momentum (a.u.) against gauge origin: 
 (X 0.000000i, Y 0.000000i, Z 0.000000i)
 Traces of the OPDMs: Tr(AA) 1.000000, Tr(BB) 1.000000

 EOMEE-CCSD calculation:   CPU 1.21 s  wall 0.83 s

 Total ccman2 time:   CPU 2.27 s  wall 1.86 s


 --------------------------------------------------------------

                    Orbital Energies (a.u.)
 --------------------------------------------------------------

 Alpha MOs
 -- Occupied --
 -0.3994
 -- Virtual --
  0.0031   1.0157   1.0334
 --------------------------------------------------------------

          Ground-State Mulliken Net Atomic Charges

     Atom                 Charge (a.u.)
  ----------------------------------------
      1 H                     0.000000
      2 H                    -0.000000
  ----------------------------------------
  Sum of atomic charges =     0.000000

 -----------------------------------------------------------------
                    Cartesian Multipole Moments
 -----------------------------------------------------------------
    Charge (ESU x 10^10)
                 0.0000
    Dipole Moment (Debye)
         X       0.0000      Y       0.0000      Z      -0.0000
       Tot       0.0000
    Quadrupole Moments (Debye-Ang)
        XX      -2.6485     XY       0.0000     YY      -2.6485
        XZ       0.0000     YZ       0.0000     ZZ      -1.8554
    Octopole Moments (Debye-Ang^2)
       XXX       0.0000    XXY       0.0000    XYY       0.0000
       YYY       0.0000    XXZ      -0.0000    XYZ       0.0000
       YYZ      -0.0000    XZZ       0.0000    YZZ       0.0000
       ZZZ      -0.0000
    Hexadecapole Moments (Debye-Ang^3)
      XXXX      -2.8666   XXXY       0.0000   XXYY      -0.9555
      XYYY       0.0000   YYYY      -2.8666   XXXZ       0.0000
      XXYZ       0.0000   XYYZ       0.0000   YYYZ       0.0000
      XXZZ      -2.8026   XYZZ       0.0000   YYZZ      -2.8026
      XZZZ       0.0000   YZZZ       0.0000   ZZZZ     -13.2574
 -----------------------------------------------------------------
 Total job time:  3.75s(wall), 3.84s(cpu) 
 Thu Aug 11 11:19:09 2022

        *************************************************************
        *                                                           *
        *  Thank you very much for using Q-Chem.  Have a nice day.  *
        *                                                           *
        *************************************************************


