Jobname.Temp
SP        R                             STO-3G              
Number of atoms                            I                4
Charge                                     I                0
Multiplicity                               I                1
Number of electrons                        I                4
Number of alpha electrons                  I                2
Number of beta electrons                   I                2
Atomic numbers                             I   N=           4
           1           1           1           1
Current cartesian coordinates              R   N=          12
  1.88972612E+00 -1.41729459E+00 -2.31424705E-16  1.88972612E+00  1.41729459E+00
  4.62849410E-17 -1.88972612E+00 -1.41729459E+00 -4.62849410E-17 -1.88972612E+00
  1.41729459E+00  2.31424705E-16
Nuclear charges                            R   N=           4
  1.00000000E+00  1.00000000E+00  1.00000000E+00  1.00000000E+00
Number of basis functions                  I                4
Number of contracted shells                I                4
Number of primitive shells                 I               12
Highest angular momentum                   I                0
Largest degree of contraction              I                3
Shell types                                I   N=           4
           0           0           0           0
Number of primitives per shell             I   N=           4
           3           3           3           3
Shell to atom map                          I   N=           4
           1           2           3           4
Primitive exponents                        R   N=          12
  3.42525091E+00  6.23913730E-01  1.68855400E-01  3.42525091E+00  6.23913730E-01
  1.68855400E-01  3.42525091E+00  6.23913730E-01  1.68855400E-01  3.42525091E+00
  6.23913730E-01  1.68855400E-01
Contraction coefficients                   R   N=          12
  1.54328971E-01  5.35328142E-01  4.44634542E-01  1.54328971E-01  5.35328142E-01
  4.44634542E-01  1.54328971E-01  5.35328142E-01  4.44634542E-01  1.54328971E-01
  5.35328142E-01  4.44634542E-01
Coordinates of each shell                  R   N=          12
  1.88972612E+00 -1.41729459E+00 -2.31424705E-16  1.88972612E+00  1.41729459E+00
  4.62849410E-17 -1.88972612E+00 -1.41729459E+00 -4.62849410E-17 -1.88972612E+00
  1.41729459E+00  2.31424705E-16
Overlap Matrix                             R   N=          10
  1.00000000E+00  2.56786336E-01  1.00000000E+00  1.19216529E-01  4.95185017E-02
  1.00000000E+00  4.95185017E-02  1.19216529E-01  2.56786336E-01  1.00000000E+00
Core Hamiltonian Matrix                    R   N=          10
 -1.29409423E+00 -4.49691661E-01 -1.29409423E+00 -2.10225596E-01 -9.52007889E-02
 -1.29409423E+00 -9.52007889E-02 -2.10225596E-01 -4.49691661E-01 -1.29409423E+00
Orbital Coefficients CCMAN2 Alpha          R   N=          16
 -4.18777306E-01 -4.18777306E-01 -4.18777306E-01 -4.18777306E-01 -4.79341816E-01
 -4.79341816E-01  4.79341816E-01  4.79341816E-01  6.09250877E-01 -6.09250877E-01
 -6.09250877E-01  6.09250877E-01 -5.54559717E-01  5.54559717E-01 -5.54559717E-01
  5.54559717E-01
Orbital Coefficients CCMAN2 Beta           R   N=          16
 -4.79341816E-01 -4.79341816E-01  4.79341816E-01  4.79341816E-01  6.09250877E-01
 -6.09250877E-01 -6.09250877E-01  6.09250877E-01 -5.54559717E-01  5.54559717E-01
 -5.54559717E-01  5.54559717E-01 -4.18777306E-01 -4.18777306E-01 -4.18777306E-01
 -4.18777306E-01
EOMEE transition Ag Excitation Energies    R   N=           1
  1.82725802E-01
Number of Active Occ                       I                4
Number of Active Vir                       I                4
Alpha Amplitudes                           R   N=           0
Alpha J Indexes                            I   N=           2
           0           0
Alpha I Indexes                            I   N=           0
EOMEE transition B1g Excitation Energies   R   N=           1
  4.28061673E-01
Number of Active Occ                       I                4
Number of Active Vir                       I                4
Alpha Amplitudes                           R   N=           2
 -7.05961334E-01 -7.05961334E-01
Alpha J Indexes                            I   N=           2
           0           2
Alpha I Indexes                            I   N=           2
           5          15
EOMEE transition B2u Excitation Energies   R   N=           1
  5.27627886E-01
Number of Active Occ                       I                4
Number of Active Vir                       I                4
Alpha Amplitudes                           R   N=           4
 -5.27392449E-01 -4.71017202E-01 -5.27392449E-01 -4.71017202E-01
Alpha J Indexes                            I   N=           2
           0           4
Alpha I Indexes                            I   N=           4
           1           4          11          14
EOMEE transition B3u Excitation Energies   R   N=           1
  6.23235514E-01
Number of Active Occ                       I                4
Number of Active Vir                       I                4
Alpha Amplitudes                           R   N=           0
Alpha J Indexes                            I   N=           2
           0           0
Alpha I Indexes                            I   N=           0
EOMEE transition Ag Excitation Energies    R   N=           1
  6.77938864E-01
Number of Active Occ                       I                4
Number of Active Vir                       I                4
Alpha Amplitudes                           R   N=           0
Alpha J Indexes                            I   N=           2
           0           0
Alpha I Indexes                            I   N=           0
EOMEE transition B1g Excitation Energies   R   N=           1
  7.54255736E-02
Number of Active Occ                       I                4
Number of Active Vir                       I                4
Alpha Amplitudes                           R   N=           4
  3.57287379E-01 -6.10201384E-01 -3.57287379E-01  6.10201384E-01
Alpha J Indexes                            I   N=           2
           0           4
Alpha I Indexes                            I   N=           4
           0           5          10          15
EOMEE transition B2u Excitation Energies   R   N=           1
  1.14531709E-01
Number of Active Occ                       I                4
Number of Active Vir                       I                4
Alpha Amplitudes                           R   N=           4
  4.89992801E-01 -5.09810803E-01 -4.89992801E-01  5.09810803E-01
Alpha J Indexes                            I   N=           2
           0           4
Alpha I Indexes                            I   N=           4
           1           4          11          14
EOMEE transition B3u Excitation Energies   R   N=           1
  1.93742627E-01
Number of Active Occ                       I                4
Number of Active Vir                       I                4
Alpha Amplitudes                           R   N=           0
Alpha J Indexes                            I   N=           2
           0           0
Alpha I Indexes                            I   N=           0
Number of independent functions            I                4
Alpha MO coefficients                      R   N=          16
 -4.18777306E-01 -4.18777306E-01 -4.18777306E-01 -4.18777306E-01 -4.79341816E-01
 -4.79341816E-01  4.79341816E-01  4.79341816E-01 -5.54559717E-01  5.54559717E-01
 -5.54559717E-01  5.54559717E-01  6.09250877E-01 -6.09250877E-01 -6.09250877E-01
  6.09250877E-01
Alpha Orbital Energies                     R   N=           4
 -4.09358784E-01 -2.86455626E-01  1.74275539E-01  2.87103372E-01
Total SCF Density                          R   N=          10
  8.80248225E-01  5.09458063E-01  8.80248225E-01 -5.71783575E-02 -8.58969664E-02
  8.80248225E-01 -8.58969664E-02 -5.71783575E-02  5.09458063E-01  8.80248225E-01
Pure Switching                             I                1
Dipole_Data                                R   N=           3
  1.01548252E-14  6.98421555E-15  1.80144292E-31
Quadrupole_Data                            R   N=           6
 -3.83798694E+00 -4.02948693E-15 -2.55566938E+00  8.75951988E-18  1.08111848E-16
 -3.65916967E+00
Octapole_Data                              R   N=          10
  1.92767023E-14  8.39602331E-15  7.18755829E-15  7.89226191E-15  2.61274996E-31
  1.54146764E-31  1.22823922E-31  2.01448081E-15  1.25940350E-15  8.33448045E-32
Hexadecapole_Data                          R   N=          15
 -2.55389228E+01 -5.13962170E-15 -5.43914160E+00 -3.85272251E-15 -1.28196980E+01
  5.56086451E-16 -6.95755538E-17  1.31230441E-16 -4.44704255E-16 -4.72898221E+00
 -3.75902928E-16 -2.76019693E+00  5.46330944E-16 -5.14005905E-16 -3.03411986E+00
