Jobname.Temp
SP        R                             STO-3G              
Number of atoms                            I                2
Charge                                     I                0
Multiplicity                               I                1
Number of electrons                        I                4
Number of alpha electrons                  I                2
Number of beta electrons                   I                2
Atomic numbers                             I   N=           2
           3           1
Current cartesian coordinates              R   N=           6
  0.00000000E+00  0.00000000E+00 -7.55890450E-01  0.00000000E+00  0.00000000E+00
  2.26767135E+00
Nuclear charges                            R   N=           2
  3.00000000E+00  1.00000000E+00
Number of basis functions                  I                6
Number of contracted shells                I                3
Number of primitive shells                 I                9
Highest angular momentum                   I                1
Largest degree of contraction              I                3
Shell types                                I   N=           3
           0          -1           0
Number of primitives per shell             I   N=           3
           3           3           3
Shell to atom map                          I   N=           3
           1           1           2
Primitive exponents                        R   N=           9
  1.61195750E+01  2.93620070E+00  7.94650500E-01  6.36289700E-01  1.47860100E-01
  4.80887000E-02  3.42525091E+00  6.23913730E-01  1.68855400E-01
Contraction coefficients                   R   N=           9
  1.54328970E-01  5.35328141E-01  4.44634541E-01 -9.99672298E-02  3.99512829E-01
  7.00115469E-01  1.54328971E-01  5.35328142E-01  4.44634542E-01
P(S=P) Contraction coefficients            R   N=           9
  0.00000000E+00  0.00000000E+00  0.00000000E+00  1.55916265E-01  6.07683701E-01
  3.91957378E-01  0.00000000E+00  0.00000000E+00  0.00000000E+00
Coordinates of each shell                  R   N=           9
  0.00000000E+00  0.00000000E+00 -7.55890450E-01  0.00000000E+00  0.00000000E+00
 -7.55890450E-01  0.00000000E+00  0.00000000E+00  2.26767135E+00
Overlap Matrix                             R   N=          21
  1.00000000E+00  2.41136651E-01  1.00000000E+00  0.00000000E+00  0.00000000E+00
  1.00000000E+00  0.00000000E+00  0.00000000E+00  0.00000000E+00  1.00000000E+00
  1.08815589E-17  7.65367943E-18  0.00000000E+00  0.00000000E+00  1.00000000E+00
  6.65172502E-02  3.95270599E-01  0.00000000E+00  0.00000000E+00  5.12910086E-01
  1.00000000E+00
Core Hamiltonian Matrix                    R   N=          21
 -4.73683071E+00 -1.06432904E+00 -1.39586023E+00  0.00000000E+00  0.00000000E+00
 -1.13579985E+00  0.00000000E+00  0.00000000E+00  0.00000000E+00 -1.13579985E+00
 -1.60988916E-02 -1.22164448E-01  0.00000000E+00  0.00000000E+00 -1.23395973E+00
 -3.02188928E-01 -6.93190793E-01  0.00000000E+00  0.00000000E+00 -8.38291344E-01
 -1.45619733E+00
Orbital Coefficients CCMAN2 Alpha          R   N=          36
  9.91250528E-01  3.27065854E-02  1.81030423E-17  5.31682288E-16 -6.30837554E-03
  4.35305549E-03 -1.67089567E-01  4.55244319E-01  5.05626327E-17 -1.70176794E-16
  3.46021112E-01  5.49078567E-01  2.10042753E-01 -7.99543374E-01  2.66811986E-16
  8.00188492E-16  6.12070064E-01  1.40166358E-01  7.02096831E-17 -2.84631499E-16
 -1.00000000E+00 -2.41704574E-18  2.19376778E-16  6.38011892E-17  3.31718332E-16
 -5.77383712E-16  6.22161499E-18 -1.00000000E+00  3.79170540E-16  1.15213703E-17
 -9.34584994E-02  7.02683812E-01 -2.57602075E-17 -2.92663812E-17  9.79455884E-01
 -1.18472281E+00
Orbital Coefficients CCMAN2 Beta           R   N=          36
 -1.67089567E-01  4.55244319E-01  5.05626327E-17 -1.70176794E-16  3.46021112E-01
  5.49078567E-01  2.10042753E-01 -7.99543374E-01  2.66811986E-16  8.00188492E-16
  6.12070064E-01  1.40166358E-01  7.02096831E-17 -2.84631499E-16 -1.00000000E+00
 -2.41704574E-18  2.19376778E-16  6.38011892E-17  3.31718332E-16 -5.77383712E-16
  6.22161499E-18 -1.00000000E+00  3.79170540E-16  1.15213703E-17 -9.34584994E-02
  7.02683812E-01 -2.57602075E-17 -2.92663812E-17  9.79455884E-01 -1.18472281E+00
  9.91250528E-01  3.27065854E-02  1.81030423E-17  5.31682288E-16 -6.30837554E-03
  4.35305549E-03
EOMEE transition A Excitation Energies     R   N=           3
  1.32982187E-01  1.85187297E-01  1.85187297E-01
Number of Active Occ                       I                4
Number of Active Vir                       I                8
Alpha Amplitudes                           R   N=           6
  6.63959538E-01  6.63959538E-01 -6.65215146E-01 -6.65215146E-01  6.65215146E-01
  6.65215146E-01
Alpha J Indexes                            I   N=           4
           0           2           4           6
Alpha I Indexes                            I   N=           6
           8          28          10          30           9          29
EOMEE transition A Excitation Energies     R   N=           3
  1.15681968E-01  1.65753930E-01  1.65753930E-01
Number of Active Occ                       I                4
Number of Active Vir                       I                8
Alpha Amplitudes                           R   N=           8
 -6.81166875E-01  1.01289226E-01  6.81166875E-01 -1.01289226E-01  6.80503935E-01
 -6.80503935E-01  6.80503935E-01 -6.80503935E-01
Alpha J Indexes                            I   N=           4
           0           4           6           8
Alpha I Indexes                            I   N=           8
           8          11          28          31          10          30
           9          29
Number of independent functions            I                6
Alpha MO coefficients                      R   N=          36
  9.91250528E-01  3.27065854E-02  1.81030423E-17  5.31682288E-16 -6.30837554E-03
  4.35305549E-03 -1.67089567E-01  4.55244319E-01  5.05626327E-17 -1.70176794E-16
  3.46021112E-01  5.49078567E-01  2.10042753E-01 -7.99543374E-01  2.66811986E-16
  8.00188492E-16  6.12070064E-01  1.40166358E-01  7.02096831E-17 -2.84631499E-16
 -1.00000000E+00 -2.41704574E-18  2.19376778E-16  6.38011892E-17  3.31718332E-16
 -5.77383712E-16  6.22161499E-18 -1.00000000E+00  3.79170540E-16  1.15213703E-17
 -9.34584994E-02  7.02683812E-01 -2.57602075E-17 -2.92663812E-17  9.79455884E-01
 -1.18472281E+00
Alpha Orbital Energies                     R   N=           6
 -2.34876194E+00 -2.85270747E-01  7.82165627E-02  1.63941346E-01  1.63941347E-01
  5.47708412E-01
Total SCF Density                          R   N=          21
  2.02558982E+00 -1.05847178E-01  4.97295899E-01  2.80024354E-17  5.01275371E-17
  1.50895225E-03  7.54197696E-16 -1.60633856E-17 -1.90778034E-20  1.50895225E-03
 -1.24253401E-01  3.22087545E-01  3.12404108E-17 -3.05467986E-17  2.10511428E-01
 -1.71831789E-01  4.70333500E-01  4.88487113E-17 -2.90707955E-17  3.13795254E-01
  6.43776258E-01
Pure Switching                             I                1
Dipole_Data                                R   N=           3
 -5.61791601E-16 -3.68868815E-16 -4.61977079E+00
Quadrupole_Data                            R   N=           6
 -5.49816195E+00  1.20605084E-19 -5.49816195E+00 -5.63742375E-17  3.90406787E-16
 -4.80606700E+00
Octapole_Data                              R   N=          10
 -1.37537582E-15  8.93437929E-17 -4.58458606E-16  2.68031379E-16 -3.14110322E+00
 -4.82420336E-20 -3.14110322E+00 -4.15161161E-16 -1.09396999E-16 -9.22210706E+00
Hexadecapole_Data                          R   N=          15
 -1.36104132E+01  3.18910946E-19 -4.53680440E+00  3.18910946E-19 -1.36104132E+01
 -8.48844975E-17  1.56851043E-16 -2.82948325E-17  4.70553130E-16 -6.05379183E+00
  1.25600462E-19 -6.05379183E+00 -1.79299528E-16  6.08023050E-16 -2.24848672E+01
