Jobname.Temp
SP        R                             STO-3G              
Number of atoms                            I                4
Charge                                     I                0
Multiplicity                               I                1
Number of electrons                        I                4
Number of alpha electrons                  I                2
Number of beta electrons                   I                2
Atomic numbers                             I   N=           4
           1           1           1           1
Current cartesian coordinates              R   N=          12
  1.65351036E+00 -1.41729459E+00 -2.02496617E-16  1.65351036E+00  1.41729459E+00
  3.00009527E-16 -1.65351036E+00 -1.41729459E+00 -3.00009527E-16 -1.65351036E+00
  1.41729459E+00  2.02496617E-16
Nuclear charges                            R   N=           4
  1.00000000E+00  1.00000000E+00  1.00000000E+00  1.00000000E+00
Number of basis functions                  I                4
Number of contracted shells                I                4
Number of primitive shells                 I               12
Highest angular momentum                   I                0
Largest degree of contraction              I                3
Shell types                                I   N=           4
           0           0           0           0
Number of primitives per shell             I   N=           4
           3           3           3           3
Shell to atom map                          I   N=           4
           1           2           3           4
Primitive exponents                        R   N=          12
  3.42525091E+00  6.23913730E-01  1.68855400E-01  3.42525091E+00  6.23913730E-01
  1.68855400E-01  3.42525091E+00  6.23913730E-01  1.68855400E-01  3.42525091E+00
  6.23913730E-01  1.68855400E-01
Contraction coefficients                   R   N=          12
  1.54328971E-01  5.35328142E-01  4.44634542E-01  1.54328971E-01  5.35328142E-01
  4.44634542E-01  1.54328971E-01  5.35328142E-01  4.44634542E-01  1.54328971E-01
  5.35328142E-01  4.44634542E-01
Coordinates of each shell                  R   N=          12
  1.65351036E+00 -1.41729459E+00 -2.02496617E-16  1.65351036E+00  1.41729459E+00
  3.00009527E-16 -1.65351036E+00 -1.41729459E+00 -3.00009527E-16 -1.65351036E+00
  1.41729459E+00  2.02496617E-16
Overlap Matrix                             R   N=          10
  1.00000000E+00  2.56786336E-01  1.00000000E+00  1.77261630E-01  7.07570715E-02
  1.00000000E+00  7.07570715E-02  1.77261630E-01  2.56786336E-01  1.00000000E+00
Core Hamiltonian Matrix                    R   N=          10
 -1.34950290E+00 -4.64862233E-01 -1.34950290E+00 -3.22327194E-01 -1.40054133E-01
 -1.34950290E+00 -1.40054133E-01 -3.22327194E-01 -4.64862233E-01 -1.34950290E+00
Orbital Coefficients CCMAN2 Alpha          R   N=          16
 -4.07595974E-01 -4.07595974E-01 -4.07595974E-01 -4.07595974E-01 -4.97822400E-01
 -4.97822400E-01  4.97822400E-01  4.97822400E-01  6.26613106E-01 -6.26613106E-01
 -6.26613106E-01  6.26613106E-01 -5.42416058E-01  5.42416058E-01 -5.42416058E-01
  5.42416058E-01
Orbital Coefficients CCMAN2 Beta           R   N=          16
 -4.97822400E-01 -4.97822400E-01  4.97822400E-01  4.97822400E-01  6.26613106E-01
 -6.26613106E-01 -6.26613106E-01  6.26613106E-01 -5.42416058E-01  5.42416058E-01
 -5.42416058E-01  5.42416058E-01 -4.07595974E-01 -4.07595974E-01 -4.07595974E-01
 -4.07595974E-01
EOMEE transition Ag Excitation Energies    R   N=           1
  1.49822164E-01
Number of Active Occ                       I                4
Number of Active Vir                       I                4
Alpha Amplitudes                           R   N=           0
Alpha J Indexes                            I   N=           2
           0           0
Alpha I Indexes                            I   N=           0
EOMEE transition B1g Excitation Energies   R   N=           1
  3.69321862E-01
Number of Active Occ                       I                4
Number of Active Vir                       I                4
Alpha Amplitudes                           R   N=           2
 -7.05380014E-01 -7.05380014E-01
Alpha J Indexes                            I   N=           2
           0           2
Alpha I Indexes                            I   N=           2
           5          15
EOMEE transition B2u Excitation Energies   R   N=           1
  5.14026383E-01
Number of Active Occ                       I                4
Number of Active Vir                       I                4
Alpha Amplitudes                           R   N=           4
 -5.28488490E-01 -4.69787097E-01 -5.28488490E-01 -4.69787097E-01
Alpha J Indexes                            I   N=           2
           0           4
Alpha I Indexes                            I   N=           4
           1           4          11          14
EOMEE transition B3u Excitation Energies   R   N=           1
  5.76251318E-01
Number of Active Occ                       I                4
Number of Active Vir                       I                4
Alpha Amplitudes                           R   N=           0
Alpha J Indexes                            I   N=           2
           0           0
Alpha I Indexes                            I   N=           0
EOMEE transition Ag Excitation Energies    R   N=           1
  6.87624686E-01
Number of Active Occ                       I                4
Number of Active Vir                       I                4
Alpha Amplitudes                           R   N=           0
Alpha J Indexes                            I   N=           2
           0           0
Alpha I Indexes                            I   N=           0
EOMEE transition B1g Excitation Energies   R   N=           1
  3.87183305E-02
Number of Active Occ                       I                4
Number of Active Vir                       I                4
Alpha Amplitudes                           R   N=           4
  2.95663871E-01 -6.42326144E-01 -2.95663871E-01  6.42326144E-01
Alpha J Indexes                            I   N=           2
           0           4
Alpha I Indexes                            I   N=           4
           0           5          10          15
EOMEE transition B2u Excitation Energies   R   N=           1
  1.31584216E-01
Number of Active Occ                       I                4
Number of Active Vir                       I                4
Alpha Amplitudes                           R   N=           4
 -4.90430693E-01  5.09389571E-01  4.90430693E-01 -5.09389571E-01
Alpha J Indexes                            I   N=           2
           0           4
Alpha I Indexes                            I   N=           4
           1           4          11          14
EOMEE transition B3u Excitation Energies   R   N=           1
  1.72789936E-01
Number of Active Occ                       I                4
Number of Active Vir                       I                4
Alpha Amplitudes                           R   N=           0
Alpha J Indexes                            I   N=           2
           0           0
Alpha I Indexes                            I   N=           0
Number of independent functions            I                4
Alpha MO coefficients                      R   N=          16
 -4.07595974E-01 -4.07595974E-01 -4.07595974E-01 -4.07595974E-01 -4.97822400E-01
 -4.97822400E-01  4.97822400E-01  4.97822400E-01 -5.42416058E-01  5.42416058E-01
 -5.42416058E-01  5.42416058E-01  6.26613106E-01 -6.26613106E-01 -6.26613106E-01
  6.26613106E-01
Alpha Orbital Energies                     R   N=           4
 -4.32300749E-01 -2.53550735E-01  1.49395564E-01  3.20582707E-01
Total SCF Density                          R   N=          10
  8.98244502E-01  4.47482867E-01  8.98244502E-01 -1.99232469E-02 -1.35963247E-01
  8.98244502E-01 -1.35963247E-01 -1.99232469E-02  4.47482867E-01  8.98244502E-01
Pure Switching                             I                1
Dipole_Data                                R   N=           3
 -7.20007506E-15  6.61384048E-15  1.01331164E-30
Quadrupole_Data                            R   N=           6
 -3.79420780E+00  6.14874928E-15 -2.71596194E+00 -4.78497168E-18  1.62379969E-16
 -3.63193185E+00
Octapole_Data                              R   N=          10
 -8.85315147E-15  6.62545016E-15 -4.58638969E-15  7.22058005E-15  9.61206857E-31
 -3.95939226E-31  7.22138865E-31 -1.42297551E-15  1.15198379E-15  4.62782993E-31
Hexadecapole_Data                          R   N=          15
 -2.01355425E+01  7.52452766E-15 -4.95073482E+00  6.23871454E-15 -1.31402239E+01
 -2.54726131E-16 -1.98275535E-16 -6.37875885E-17 -8.46997725E-16 -3.83228145E+00
  1.22072810E-15 -2.78746354E+00 -2.50640558E-16 -9.51210501E-16 -2.99670298E+00
