                  Welcome to Q-Chem
     A Quantum Leap Into The Future Of Chemistry


 Q-Chem 5.4 (devel), Q-Chem, Inc., Pleasanton, CA (2021)

 E. Epifanovsky,  A. T. B. Gilbert,  Xintian Feng,  Joonho Lee,  Yuezhi Mao,  
 N. Mardirossian,  P. Pokhilko,  A. White,  M. Wormit,  M. P. Coons,  
 A. L. Dempwolff,  Zhengting Gan,  D. Hait,  P. R. Horn,  L. D. Jacobson,  
 I. Kaliman,  J. Kussmann,  A. W. Lange,  Ka Un Lao,  D. S. Levine,  Jie Liu,  
 S. C. McKenzie,  A. F. Morrison,  K. Nanda,  F. Plasser,  D. R. Rehn,  
 M. L. Vidal,  Zhi-Qiang You,  Ying Zhu,  B. Alam,  B. Albrecht,  
 A. Aldossary,  E. Alguire,  J. H. Andersen,  D. Barton,  K. Begam,  A. Behn,  
 Y. A. Bernard,  E. J. Berquist,  H. Burton,  A. Carreras,  K. Carter-Fenk,  
 R. Chakraborty,  A. D. Chien,  K. D. Closser,  V. Cofer-Shabica,  
 S. Dasgupta,  Jia Deng,  M. de Wergifosse,  M. Diedenhofen,  Hainam Do,  
 S. Ehlert,  Po-Tung Fang,  S. Fatehi,  Qingguo Feng,  T. Friedhoff,  
 J. Gayvert,  Qinghui Ge,  G. Gidofalvi,  M. Goldey,  J. Gomes,  
 C. Gonzalez-Espinoza,  S. Gulania,  A. Gunina,  M. W. D. Hanson-Heine,  
 P. H. P. Harbach,  A. W. Hauser,  M. F. Herbst,  M. Hernandez Vera,  
 M. Hodecker,  Z. C. Holden,  S. Houck,  Xunkun Huang,  Kerwin Hui,  
 B. C. Huynh,  M. Ivanov,  Hyunjun Ji,  Hanjie Jiang,  B. Kaduk,  S. Kaehler,  
 K. Khistyaev,  Jaehoon Kim,  P. Klunzinger,  Z. Koczor-Benda,  
 Joong Hoon Koh,  D. Kosenkov,  L. Koulias,  T. Kowalczyk,  C. M. Krauter,  
 K. Kue,  A. Kunitsa,  T. Kus,  A. Landau,  K. V. Lawler,  D. Lefrancois,  
 S. Lehtola,  Rain Li,  Yi-Pei Li,  Jiashu Liang,  M. Liebenthal,  
 Hung-Hsuan Lin,  You-Sheng Lin,  Fenglai Liu,  Kuan-Yu Liu,  
 M. Loipersberger,  A. Luenser,  A. Manjanath,  P. Manohar,  E. Mansoor,  
 S. F. Manzer,  Shan-Ping Mao,  A. V. Marenich,  T. Markovich,  S. Mason,  
 S. A. Maurer,  P. F. McLaughlin,  M. F. S. J. Menger,  J.-M. Mewes,  
 S. A. Mewes,  P. Morgante,  J. W. Mullinax,  K. J. Oosterbaan,  G. Paran,  
 Alexander C. Paul,  Suranjan K. Paul,  F. Pavosevic,  Zheng Pei,  S. Prager,  
 E. I. Proynov,  E. Ramos,  B. Rana,  A. E. Rask,  A. Rettig,  R. M. Richard,  
 F. Rob,  E. Rossomme,  T. Scheele,  M. Scheurer,  M. Schneider,  
 N. Sergueev,  S. M. Sharada,  W. Skomorowski,  D. W. Small,  C. J. Stein,  
 Yu-Chuan Su,  E. J. Sundstrom,  Zhen Tao,  J. Thirman,  T. Tsuchimochi,  
 N. M. Tubman,  S. P. Veccham,  O. Vydrov,  J. Wenzel,  J. Witte,  A. Yamada,  
 Kun Yao,  S. Yeganeh,  S. R. Yost,  A. Zech,  Igor Ying Zhang,  Xing Zhang,  
 Yu Zhang,  D. Zuev,  A. Aspuru-Guzik,  A. T. Bell,  N. A. Besley,  
 K. B. Bravaya,  B. R. Brooks,  D. Casanova,  Jeng-Da Chai,  S. Coriani,  
 C. J. Cramer,  A. E. DePrince, III,  R. A. DiStasio Jr.,  A. Dreuw,  
 B. D. Dunietz,  T. R. Furlani,  W. A. Goddard III,  S. Grimme,  
 S. Hammes-Schiffer,  T. Head-Gordon,  W. J. Hehre,  Chao-Ping Hsu,  
 T.-C. Jagau,  Yousung Jung,  A. Klamt,  Jing Kong,  D. S. Lambrecht,  
 WanZhen Liang,  N. J. Mayhall,  C. W. McCurdy,  J. B. Neaton,  
 C. Ochsenfeld,  J. A. Parkhill,  R. Peverati,  V. A. Rassolov,  Yihan Shao,  
 L. V. Slipchenko,  T. Stauch,  R. P. Steele,  J. E. Subotnik,  
 A. J. W. Thom,  A. Tkatchenko,  D. G. Truhlar,  T. Van Voorhis,  
 T. A. Wesolowski,  K. B. Whaley,  H. L. Woodcock III,  P. M. Zimmerman,  
 S. Faraji,  P. M. W. Gill,  M. Head-Gordon,  J. M. Herbert,  A. I. Krylov

 Additional authors for Version 5.4.1: 
 S. Kotaru,  Shaozhi Li,  Xiangyuan Li,  F. Matz,  A. Molle,  Haisheng Ren,  
 Yingli Su,  Hung-Yi Tsai,  C. Utku,  Fang Wang

 Contributors to earlier versions of Q-Chem not listed above: 
 R. D. Adamson,  B. Austin,  R. Baer,  J. Baker,  G. J. O. Beran,  
 K. Brandhorst,  S. T. Brown,  E. F. C. Byrd,  A. K. Chakraborty,  
 G. K. L. Chan,  Chun-Min Chang,  Yunqing Chen,  C.-L. Cheng,  
 Siu Hung Chien,  D. M. Chipman,  D. L. Crittenden,  H. Dachsel,  
 R. J. Doerksen,  A. D. Dutoi,  R. G. Edgar,  J. Fosso-Tande,  
 L. Fusti-Molnar,  D. Ghosh,  A. Ghysels,  A. Golubeva-Zadorozhnaya,  
 J. Gonthier,  M. S. Gordon,  S. R. Gwaltney,  G. Hawkins,  J. E. Herr,  
 A. Heyden,  S. Hirata,  E. G. Hohenstein,  G. Kedziora,  F. J. Keil,  
 C. Kelley,  Jihan Kim,  R. A. King,  R. Z. Khaliullin,  P. P. Korambath,  
 W. Kurlancheek,  A. Laurent,  A. M. Lee,  M. S. Lee,  S. V. Levchenko,  
 Ching Yeh Lin,  D. Liotard,  E. Livshits,  R. C. Lochan,  I. Lotan,  
 L. A. Martinez-Martinez,  P. E. Maslen,  N. Nair,  D. P. O'Neill,  
 D. Neuhauser,  E. Neuscamman,  C. M. Oana,  R. Olivares-Amaya,  R. Olson,  
 T. M. Perrine,  B. Peters,  P. A. Pieniazek,  A. Prociuk,  Y. M. Rhee,  
 J. Ritchie,  M. A. Rohrdanz,  E. Rosta,  N. J. Russ,  H. F. Schaefer III,  
 M. W. Schmidt,  N. E. Schultz,  S. Sharma,  N. Shenvi,  C. D. Sherrill,  
 A. C. Simmonett,  A. Sodt,  T. Stein,  D. Stuck,  K. S. Thanthiriwatte,  
 V. Vanovschi,  L. Vogt,  Tao Wang,  A. Warshel,  M. A. Watson,  
 C. F. Williams,  Q. Wu,  X. Xu,  Jun Yang,  W. Zhang,  Yan Zhao

 Please cite Q-Chem as follows:
 Y. Shao et al., Mol. Phys. 113, 184-215 (2015)
 DOI: 10.1080/00268976.2014.952696

 Q-Chem 5.4.1 for Intel X86 EM64T Linux

 Parts of Q-Chem use Armadillo 9.900.5 (Nocturnal Misbehaviour).
 http://arma.sourceforge.net/

 Q-Chem begins on Thu Aug 11 11:20:13 2022  

orc43
 Host: 0

     Scratch files written to /scratch/yongbin/qchem13010//
 Processing $rem in /home/users/yongbin/software/yongbin_quantum/config/preferences:
 Processing $rem in /home/users/yongbin/.qchemrc:
 Core orbitals will be frozen

 Checking the input file for inconsistencies... 	...done.

--------------------------------------------------------------
User input:
--------------------------------------------------------------
$comment
Hydrogen molecule
$end

$molecule
0 1
H 0.0 0.0 0.0
H 0.0 0.0 2.0
$end

$rem
   print_qis = true
   BASIS                = 6-31g 
   SYMMETRY             = false
   CC_SYMMETRY          = false
   METHOD               = eom-ccsd
   EE_SINGLETS          = [3]  ! Compute two EOM-EE singlet excited states
   EE_TRIPLETS          = [3]  ! Compute two EOM-EE triplet excited states
   CC_REF_PROP          = true ! Compute ground state properties
   CC_EOM_PROP          = true ! Compute excited state properties
!   CC_OSFNO             = true
   GUI                  = 2
$end
--------------------------------------------------------------
 ----------------------------------------------------------------
             Standard Nuclear Orientation (Angstroms)
    I     Atom           X                Y                Z
 ----------------------------------------------------------------
    1      H       0.0000000000     0.0000000000    -1.0000000000
    2      H       0.0000000000     0.0000000000     1.0000000000
 ----------------------------------------------------------------
 Molecular Point Group                 D*h   NOp =***
 Largest Abelian Subgroup              D2h   NOp =  1
 Nuclear Repulsion Energy =           0.26458861 hartrees
 There are        1 alpha and        1 beta electrons
 Requested basis set is 6-31G
 There are 4 shells and 4 basis functions
 Total memory of 2000 MB is distributed as follows: 
   MEM_STATIC is set to 192 MB
   QALLOC/CCMAN JOB total memory use is  1808 MB
 Warning: actual memory use might exceed 2000 MB

 Total QAlloc Memory Limit   2000 MB
 Mega-Array Size       188 MB
 MEM_STATIC part       192 MB

                       Distance Matrix (Angstroms)
             H (  1)
   H (  2)  2.000000

 A cutoff of  1.0D-14 yielded     10 shell pairs
 There are        10 function pairs
 Smallest overlap matrix eigenvalue = 2.60E-01

 Scale SEOQF with 1.000000e+00/1.000000e+00/1.000000e+00

 Standard Electronic Orientation quadrupole field applied
 Nucleus-field energy     =    -0.0000000021 hartrees
 Guess from superposition of atomic densities
 Warning:  Energy on first SCF cycle will be non-variational
 SAD guess density has 2.000000 electrons

 -----------------------------------------------------------------------
  General SCF calculation program by
  Eric Jon Sundstrom, Paul Horn, Yuezhi Mao, Dmitri Zuev, Alec White,
  David Stuck, Shaama M.S., Shane Yost, Joonho Lee, David Small,
  Daniel Levine, Susi Lehtola, Hugh Burton, Evgeny Epifanovsky,
  Bang C. Huynh
 -----------------------------------------------------------------------
 Hartree-Fock
 using 20 threads for integral computing
 -------------------------------------------------------
 OpenMP Integral computing Module                
 Release: version 1.0, May 2013, Q-Chem Inc. Pittsburgh 
 -------------------------------------------------------
 A restricted SCF calculation will be
 performed using DIIS
 SCF converges when DIIS error is below 1.0e-08
 ---------------------------------------
  Cycle       Energy         DIIS error
 ---------------------------------------
    1      -0.6938048363      4.47e-02  
    2      -0.9162550523      2.17e-03  
    3      -0.9162709647      2.87e-04  
    4      -0.9162712480      3.68e-08  
    5      -0.9162712480      4.65e-12  Convergence criterion met
 ---------------------------------------
 SCF time:   CPU 0.48s  wall 1.00s 
 SCF   energy in the final basis set =       -0.9162712480
 Total energy in the final basis set =       -0.9162712480


 ------------------------------------------------------------------------------

   CCMAN2: suite of methods based on coupled cluster
           and equation of motion theories.

   Components:
   * libvmm-1.3-trunk
     by Evgeny Epifanovsky, Ilya Kaliman.
   * libtensor-2.5-trunk
     by Evgeny Epifanovsky, Michael Wormit, Dmitry Zuev, Sam Manzer, 
        Ilya Kaliman.
   * libcc-2.5-trunk
     by Evgeny Epifanovsky, Arik Landau, Tomasz Kus, Kirill Khistyaev, 
        Dmitry Zuev, Prashant Manohar, Xintian Feng, Anna Krylov, 
        Matthew Goldey, Alec White, Thomas Jagau, Kaushik Nanda, 
        Anastasia Gunina, Alexander Kunitsa, Joonho Lee.

   CCMAN original authors:
   Anna I. Krylov, C. David Sherrill, Steven R. Gwaltney,
   Edward F. C. Byrd (2000)
   Sergey V. Levchenko, Lyudmila V. Slipchenko, Tao Wang,
   Ana-Maria C. Cristian (2003)
   Piotr A. Pieniazek, C. Melania Oana, Evgeny Epifanovsky (2007)
   Prashant Manohar (2009)

 ------------------------------------------------------------------------------


 Allocating and initializing 1808MB of RAM...
 Calculation will run on 20 cores.


 Occupation and symmetry of molecular orbitals

 Point group: C1 (1 irreducible representation).

                           A     All 
 -------------------------------------
 All molecular orbitals:
  - Alpha                  4     4   
  - Beta                   4     4   
 -------------------------------------
 Alpha orbitals:
  - Frozen occupied        0     0   
  - Active occupied        1     1   
  - Active virtual         3     3   
  - Frozen virtual         0     0   
 -------------------------------------
 Beta orbitals:
  - Frozen occupied        0     0   
  - Active occupied        1     1   
  - Active virtual         3     3   
  - Frozen virtual         0     0   
 -------------------------------------

 Import integrals:   CPU 0.00 s  wall 0.00 s

 Import integrals:   CPU 0.09 s  wall 0.01 s

 Run QIS:   CPU 0.00 s  wall 0.00 s

 MP2 amplitudes:   CPU 0.00 s  wall 0.00 s

Running a double precision version
           CCSD T amplitudes will be solved using DIIS.

           Start     Size      MaxIter   EConv     TConv     
           3         7         100       1.00e-06  1.00e-04  
 ------------------------------------------------------------------------------
           Energy (a.u.)   Ediff      Tdiff       Comment
 ------------------------------------------------------------------------------
            -0.96240645                           
     1      -0.98577563   2.34e-02   1.98e-01     
     2      -0.99941138   1.36e-02   1.17e-01     
     3      -1.00675483   7.34e-03   7.58e-02     
     4      -1.01473359   7.98e-03   8.06e-02     Switched to DIIS steps.
     5      -1.01381701   9.17e-04   5.37e-04     
     6      -1.01437691   5.60e-04   5.74e-03     
     7      -1.01430248   7.44e-05   8.15e-04     
     8      -1.01430857   6.09e-06   8.19e-05     
     9      -1.01430926   6.86e-07   9.38e-06     
 ------------------------------------------------------------------------------
            -1.01430926                           CCSD T converged.

End of double precision
 SCF energy                 = -0.91627125
 MP2 energy                 = -0.96240645
 CCSD correlation energy    = -0.09803801
 CCSD total energy          = -1.01430926

 CCSD  T1^2 = 0.0060  T2^2 = 0.2955  Leading amplitudes:

 Amplitude    Orbitals with energies
 0.0546941878       1 (A) A                   ->    3 (A) A                    
                   -0.3790                          1.0052                     
 0.0546941878       1 (A) B                   ->    3 (A) B                    
                   -0.3790                          1.0052                     

 Amplitude    Orbitals with energies
 -0.5343832786       1 (A) A       1 (A) B     ->    2 (A) A       2 (A) B      
                    -0.3790       -0.3790           -0.0236       -0.0236       
  0.5343832786       1 (A) A       1 (A) B     ->    2 (A) B       2 (A) A      
                    -0.3790       -0.3790           -0.0236       -0.0236       
  0.5343832786       1 (A) B       1 (A) A     ->    2 (A) A       2 (A) B      
                    -0.3790       -0.3790           -0.0236       -0.0236       
 -0.5343832786       1 (A) B       1 (A) A     ->    2 (A) B       2 (A) A      
                    -0.3790       -0.3790           -0.0236       -0.0236       

 Computing CCSD intermediates for later calculations in double precision
 Finished.

Running a double precision version
           CCSD Lambda amplitudes will be solved using DIIS.
           Start     Size      MaxIter   EConv     LConv     
           3         7         100       1.00e-06  1.00e-04  
 ------------------------------------------------------------------------------
            Enorm      Ldiff       Comment
 ------------------------------------------------------------------------------
     1     1.45e-01   1.43e-01     
     2     5.65e-02   5.52e-02     
     3     2.83e-02   2.79e-02     
     4     8.99e-04   2.67e-02     Switched to DIIS steps.
     5     2.46e-04   2.61e-04     
     6     2.17e-05   1.19e-04     
     7     1.94e-06   7.98e-06     
     8     1.38e-16   1.45e-06     
 ------------------------------------------------------------------------------
                                   CCSD Lambda converged.

 Computing density matrices in double precision...
 Computing density matrices... Done.
 Reference state properties
 Dipole moment (a.u.): 0.000000 (X -0.000000, Y -0.000000, Z 0.000000)
 R-squared (a.u.): 12.538705 (XX 1.959810, YY 1.959810, ZZ 8.619085)
 Gauge origin (a.u.): (0.000000, 0.000000, 0.000000)
 Angular momentum (a.u.) against gauge origin: 
 (X 0.000000i, Y 0.000000i, Z 0.000000i)
 Traces of the OPDMs: Tr(AA) 1.000000, Tr(BB) 1.000000
 Density matrix was written to a file for further analysis.

 CCSD calculation:   CPU 0.58 s  wall 0.38 s

        Solving for EOMEE-CCSD A singlet states.

Running a double precision version
        EOMEE-CCSD/MP2 right amplitudes will be solved using Davidson.
        Amplitudes will be solved using standard  algorithm.
     Hard-coded thresholds: 
     LinDepThresh=1.00e-15  NormThresh=1.00e-06  ReorthogonThresh=1.00e-02

      Roots     MaxVec    MaxIter   Precond   Conv      Shift    
      3         120       60        1         1.00e-05  0.00e+00  
 ------------------------------------------------------------------------------
      Iter ConvRoots NVecs ResNorm Current eigenvalues (eV)
 ------------------------------------------------------------------------------
      0    0      3     9.53e-02   10.1439   32.4956   33.5860   
      1    2      6     3.18e-02   9.6025*  27.6324*  28.3807   
      2    2      7     1.43e-02   9.6025*  11.6563   27.6324*  
      3    2      8     1.11e-04   9.6025*  10.6053   27.6324*  
      4    3      9     5.56e-31   9.6025*  10.6048*  27.5980*  

     Davidson procedure converged

 EOMEE transition 1/A
 Total energy = -0.66142548 a.u.  Excitation energy = 9.60245585 eV.
 R0^2 = 0.0000  R1^2 = 0.9767  R2^2 = 0.0233  Res^2 = 5.40e-31
 Conv-d = yes

 Amplitude    Transitions between orbitals
  0.6988013471       1 (A) A                   ->    2 (A) A                    
  0.6988013471       1 (A) B                   ->    2 (A) B                    
  0.0066979057       1 (A) A                   ->    4 (A) A                    
  0.0066979057       1 (A) B                   ->    4 (A) B                    
 -0.0988528229       1 (A) A       1 (A) B     ->    2 (A) A       3 (A) B      
 -0.0988528229       1 (A) A       1 (A) B     ->    3 (A) A       2 (A) B      
  0.0988528229       1 (A) A       1 (A) B     ->    3 (A) B       2 (A) A      
  0.0988528229       1 (A) A       1 (A) B     ->    2 (A) B       3 (A) A      
  0.0988528229       1 (A) B       1 (A) A     ->    2 (A) A       3 (A) B      
  0.0988528229       1 (A) B       1 (A) A     ->    3 (A) A       2 (A) B      
 -0.0988528229       1 (A) B       1 (A) A     ->    2 (A) B       3 (A) A      
 -0.0988528229       1 (A) B       1 (A) A     ->    3 (A) B       2 (A) A      
  0.0431269602       1 (A) A       1 (A) B     ->    3 (A) A       4 (A) B      
  0.0431269602       1 (A) A       1 (A) B     ->    4 (A) A       3 (A) B      
 -0.0431269602       1 (A) A       1 (A) B     ->    4 (A) B       3 (A) A      
 -0.0431269602       1 (A) A       1 (A) B     ->    3 (A) B       4 (A) A      
 -0.0431269602       1 (A) B       1 (A) A     ->    3 (A) A       4 (A) B      
 -0.0431269602       1 (A) B       1 (A) A     ->    4 (A) A       3 (A) B      
  0.0431269602       1 (A) B       1 (A) A     ->    3 (A) B       4 (A) A      
  0.0431269602       1 (A) B       1 (A) A     ->    4 (A) B       3 (A) A      

              Summary of significant orbitals:

               Number  Type             Irrep      Energy
               1       Occ  Alpha       1 (A)     -0.3790
               1       Occ  Beta        1 (A)     -0.3790
               2       Vir  Alpha       2 (A)     -0.0236
               3       Vir  Alpha       3 (A)      1.0052
               4       Vir  Alpha       4 (A)      1.0290
               2       Vir  Beta        2 (A)     -0.0236
               3       Vir  Beta        3 (A)      1.0052
               4       Vir  Beta        4 (A)      1.0290


 EOMEE transition 2/A
 Total energy = -0.62459120 a.u.  Excitation energy = 10.60476770 eV.
 R0^2 = 0.1750  R1^2 = 0.0219  R2^2 = 0.9781  Res^2 = 2.79e-31
 Conv-d = yes

 Amplitude    Transitions between orbitals
  0.1045767248       1 (A) A                   ->    3 (A) A                    
  0.1045767248       1 (A) B                   ->    3 (A) B                    
 -0.9854939495       1 (A) A       1 (A) B     ->    2 (A) A       2 (A) B      
  0.9854939495       1 (A) A       1 (A) B     ->    2 (A) B       2 (A) A      
  0.9854939495       1 (A) B       1 (A) A     ->    2 (A) A       2 (A) B      
 -0.9854939495       1 (A) B       1 (A) A     ->    2 (A) B       2 (A) A      
  0.0505273773       1 (A) A       1 (A) B     ->    2 (A) A       4 (A) B      
  0.0505273773       1 (A) A       1 (A) B     ->    4 (A) A       2 (A) B      
 -0.0505273773       1 (A) A       1 (A) B     ->    4 (A) B       2 (A) A      
 -0.0505273773       1 (A) A       1 (A) B     ->    2 (A) B       4 (A) A      
 -0.0505273773       1 (A) B       1 (A) A     ->    2 (A) A       4 (A) B      
 -0.0505273773       1 (A) B       1 (A) A     ->    4 (A) A       2 (A) B      
  0.0505273773       1 (A) B       1 (A) A     ->    2 (A) B       4 (A) A      
  0.0505273773       1 (A) B       1 (A) A     ->    4 (A) B       2 (A) A      
  0.0332782056       1 (A) A       1 (A) B     ->    3 (A) A       3 (A) B      
 -0.0332782056       1 (A) A       1 (A) B     ->    3 (A) B       3 (A) A      
 -0.0332782056       1 (A) B       1 (A) A     ->    3 (A) A       3 (A) B      
  0.0332782056       1 (A) B       1 (A) A     ->    3 (A) B       3 (A) A      
  0.0267511154       1 (A) A       1 (A) B     ->    4 (A) A       4 (A) B      
 -0.0267511154       1 (A) A       1 (A) B     ->    4 (A) B       4 (A) A      
 -0.0267511154       1 (A) B       1 (A) A     ->    4 (A) A       4 (A) B      
  0.0267511154       1 (A) B       1 (A) A     ->    4 (A) B       4 (A) A      

              Summary of significant orbitals:

               Number  Type             Irrep      Energy
               1       Occ  Alpha       1 (A)     -0.3790
               1       Occ  Beta        1 (A)     -0.3790
               2       Vir  Alpha       2 (A)     -0.0236
               3       Vir  Alpha       3 (A)      1.0052
               4       Vir  Alpha       4 (A)      1.0290
               2       Vir  Beta        2 (A)     -0.0236
               3       Vir  Beta        3 (A)      1.0052
               4       Vir  Beta        4 (A)      1.0290


 EOMEE transition 3/A
 Total energy = -0.00010098 a.u.  Excitation energy = 27.59801065 eV.
 R0^2 = 0.0011  R1^2 = 0.6301  R2^2 = 0.3699  Res^2 = 8.49e-31
 Conv-d = yes

 Amplitude    Transitions between orbitals
 -0.5612716272       1 (A) A                   ->    3 (A) A                    
 -0.5612716272       1 (A) B                   ->    3 (A) B                    
 -0.4109616416       1 (A) A       1 (A) B     ->    2 (A) A       4 (A) B      
 -0.4109616416       1 (A) A       1 (A) B     ->    4 (A) A       2 (A) B      
  0.4109616416       1 (A) A       1 (A) B     ->    4 (A) B       2 (A) A      
  0.4109616416       1 (A) A       1 (A) B     ->    2 (A) B       4 (A) A      
  0.4109616416       1 (A) B       1 (A) A     ->    2 (A) A       4 (A) B      
  0.4109616416       1 (A) B       1 (A) A     ->    4 (A) A       2 (A) B      
 -0.4109616416       1 (A) B       1 (A) A     ->    2 (A) B       4 (A) A      
 -0.4109616416       1 (A) B       1 (A) A     ->    4 (A) B       2 (A) A      
 -0.1424026307       1 (A) A       1 (A) B     ->    2 (A) A       2 (A) B      
  0.1424026307       1 (A) A       1 (A) B     ->    2 (A) B       2 (A) A      
  0.1424026307       1 (A) B       1 (A) A     ->    2 (A) A       2 (A) B      
 -0.1424026307       1 (A) B       1 (A) A     ->    2 (A) B       2 (A) A      
  0.1089867132       1 (A) A       1 (A) B     ->    4 (A) A       4 (A) B      
 -0.1089867132       1 (A) A       1 (A) B     ->    4 (A) B       4 (A) A      
 -0.1089867132       1 (A) B       1 (A) A     ->    4 (A) A       4 (A) B      
  0.1089867132       1 (A) B       1 (A) A     ->    4 (A) B       4 (A) A      
  0.0035730158       1 (A) A       1 (A) B     ->    3 (A) A       3 (A) B      
 -0.0035730158       1 (A) A       1 (A) B     ->    3 (A) B       3 (A) A      
 -0.0035730158       1 (A) B       1 (A) A     ->    3 (A) A       3 (A) B      
  0.0035730158       1 (A) B       1 (A) A     ->    3 (A) B       3 (A) A      

              Summary of significant orbitals:

               Number  Type             Irrep      Energy
               1       Occ  Alpha       1 (A)     -0.3790
               1       Occ  Beta        1 (A)     -0.3790
               2       Vir  Alpha       2 (A)     -0.0236
               3       Vir  Alpha       3 (A)      1.0052
               4       Vir  Alpha       4 (A)      1.0290
               2       Vir  Beta        2 (A)     -0.0236
               3       Vir  Beta        3 (A)      1.0052
               4       Vir  Beta        4 (A)      1.0290


 EEs and amplitudes of EOMEE has be exported to fchk file
Running a double precision version
      EOM-CCSD/MP2 left amplitudes will be solved using Davidson.
        Amplitudes will be solved using MOM  algorithm.
     Hard-coded thresholds: 
     LinDepThresh=1.00e-15  NormThresh=1.00e-06  ReorthogonThresh=1.00e-02

      Roots     MaxVec    MaxIter   Precond   Conv      Shift    
      3         120       60        1         1.00e-05  0.00e+00  
 ------------------------------------------------------------------------------
      Iter ConvRoots NVecs ResNorm Current eigenvalues (eV)
 ------------------------------------------------------------------------------
      0    0      3     5.04e-03   9.6025   10.6048   27.5980   
      1    0      6     1.45e-04   9.6025   10.6048   27.5980   
      2    3      8     1.00e-07   9.6025*  10.6048*  27.5980*  

     Davidson procedure converged

 Excited state properties for  EOMEE-CCSD transition 1/A
 Dipole moment (a.u.): 0.000000 (X -0.000000, Y -0.000000, Z 0.000000)
 R-squared (a.u.): 14.642994 (XX 2.375065, YY 2.375065, ZZ 9.892864)
 Gauge origin (a.u.): (0.000000, 0.000000, 0.000000)
 Angular momentum (a.u.) against gauge origin: 
 (X 0.000000i, Y 0.000000i, Z 0.000000i)
 Traces of the OPDMs: Tr(AA) 1.000000, Tr(BB) 1.000000

 Excited state properties for  EOMEE-CCSD transition 2/A
 Dipole moment (a.u.): 0.000000 (X -0.000000, Y -0.000000, Z 0.000000)
 R-squared (a.u.): 15.055034 (XX 2.266524, YY 2.266524, ZZ 10.521986)
 Gauge origin (a.u.): (0.000000, 0.000000, 0.000000)
 Angular momentum (a.u.) against gauge origin: 
 (X 0.000000i, Y 0.000000i, Z 0.000000i)
 Traces of the OPDMs: Tr(AA) 1.000000, Tr(BB) 1.000000

 Excited state properties for  EOMEE-CCSD transition 3/A
 Dipole moment (a.u.): 0.000000 (X -0.000000, Y -0.000000, Z 0.000000)
 R-squared (a.u.): 14.794746 (XX 2.442054, YY 2.442054, ZZ 9.910637)
 Gauge origin (a.u.): (0.000000, 0.000000, 0.000000)
 Angular momentum (a.u.) against gauge origin: 
 (X 0.000000i, Y 0.000000i, Z 0.000000i)
 Traces of the OPDMs: Tr(AA) 1.000000, Tr(BB) 1.000000

        Solving for EOMEE-CCSD A triplet states.

Running a double precision version
        EOMEE-CCSD/MP2 right amplitudes will be solved using Davidson.
        Amplitudes will be solved using standard  algorithm.
     Hard-coded thresholds: 
     LinDepThresh=1.00e-15  NormThresh=1.00e-06  ReorthogonThresh=1.00e-02

      Roots     MaxVec    MaxIter   Precond   Conv      Shift    
      3         120       60        1         1.00e-05  0.00e+00  
 ------------------------------------------------------------------------------
      Iter ConvRoots NVecs ResNorm Current eigenvalues (eV)
 ------------------------------------------------------------------------------
      0    0      3     8.00e-03   0.8171   28.4339   29.8278   
      1    3      5     2.85e-07   0.7614*  26.9385*  27.4580*  

     Davidson procedure converged

 EOMEE transition 1/A
 Total energy = -0.98632990 a.u.  Excitation energy = 0.76135700 eV.
 R0^2 = 0.0000  R1^2 = 0.9994  R2^2 = 0.0006  Res^2 = 2.59e-10
 Conv-d = yes

 Amplitude    Transitions between orbitals
 -0.7036639992       1 (A) A                   ->    2 (A) A                    
  0.7036639992       1 (A) B                   ->    2 (A) B                    
  0.0676358516       1 (A) A                   ->    4 (A) A                    
 -0.0676358516       1 (A) B                   ->    4 (A) B                    
 -0.0166821221       1 (A) A       1 (A) B     ->    2 (A) A       3 (A) B      
  0.0166821221       1 (A) A       1 (A) B     ->    3 (A) A       2 (A) B      
  0.0166821221       1 (A) A       1 (A) B     ->    3 (A) B       2 (A) A      
 -0.0166821221       1 (A) A       1 (A) B     ->    2 (A) B       3 (A) A      
  0.0166821221       1 (A) B       1 (A) A     ->    2 (A) A       3 (A) B      
 -0.0166821221       1 (A) B       1 (A) A     ->    3 (A) A       2 (A) B      
  0.0166821221       1 (A) B       1 (A) A     ->    2 (A) B       3 (A) A      
 -0.0166821221       1 (A) B       1 (A) A     ->    3 (A) B       2 (A) A      
 -0.0020185713       1 (A) A       1 (A) B     ->    3 (A) A       4 (A) B      
  0.0020185713       1 (A) A       1 (A) B     ->    4 (A) A       3 (A) B      
  0.0020185713       1 (A) A       1 (A) B     ->    4 (A) B       3 (A) A      
 -0.0020185713       1 (A) A       1 (A) B     ->    3 (A) B       4 (A) A      
  0.0020185713       1 (A) B       1 (A) A     ->    3 (A) A       4 (A) B      
 -0.0020185713       1 (A) B       1 (A) A     ->    4 (A) A       3 (A) B      
  0.0020185713       1 (A) B       1 (A) A     ->    3 (A) B       4 (A) A      
 -0.0020185713       1 (A) B       1 (A) A     ->    4 (A) B       3 (A) A      

              Summary of significant orbitals:

               Number  Type             Irrep      Energy
               1       Occ  Alpha       1 (A)     -0.3790
               1       Occ  Beta        1 (A)     -0.3790
               2       Vir  Alpha       2 (A)     -0.0236
               3       Vir  Alpha       3 (A)      1.0052
               4       Vir  Alpha       4 (A)      1.0290
               2       Vir  Beta        2 (A)     -0.0236
               3       Vir  Beta        3 (A)      1.0052
               4       Vir  Beta        4 (A)      1.0290


 EOMEE transition 2/A
 Total energy = -0.02433894 a.u.  Excitation energy = 26.93846245 eV.
 R0^2 = 0.0000  R1^2 = 0.7923  R2^2 = 0.2077  Res^2 = 1.19e-30
 Conv-d = yes

 Amplitude    Transitions between orbitals
  0.6294213831       1 (A) A                   ->    3 (A) A                    
 -0.6294213831       1 (A) B                   ->    3 (A) B                    
 -0.3222246460       1 (A) A       1 (A) B     ->    2 (A) A       4 (A) B      
  0.3222246460       1 (A) A       1 (A) B     ->    4 (A) A       2 (A) B      
  0.3222246460       1 (A) A       1 (A) B     ->    4 (A) B       2 (A) A      
 -0.3222246460       1 (A) A       1 (A) B     ->    2 (A) B       4 (A) A      
  0.3222246460       1 (A) B       1 (A) A     ->    2 (A) A       4 (A) B      
 -0.3222246460       1 (A) B       1 (A) A     ->    4 (A) A       2 (A) B      
  0.3222246460       1 (A) B       1 (A) A     ->    2 (A) B       4 (A) A      
 -0.3222246460       1 (A) B       1 (A) A     ->    4 (A) B       2 (A) A      

              Summary of significant orbitals:

               Number  Type             Irrep      Energy
               1       Occ  Alpha       1 (A)     -0.3790
               1       Occ  Beta        1 (A)     -0.3790
               2       Vir  Alpha       2 (A)     -0.0236
               3       Vir  Alpha       3 (A)      1.0052
               4       Vir  Alpha       4 (A)      1.0290
               2       Vir  Beta        2 (A)     -0.0236
               3       Vir  Beta        3 (A)      1.0052
               4       Vir  Beta        4 (A)      1.0290


 EOMEE transition 3/A
 Total energy = -0.00524540 a.u.  Excitation energy = 27.45802399 eV.
 R0^2 = 0.0000  R1^2 = 0.6062  R2^2 = 0.3938  Res^2 = 8.55e-07
 Conv-d = yes

 Amplitude    Transitions between orbitals
 -0.5436295679       1 (A) A                   ->    4 (A) A                    
  0.5436295679       1 (A) B                   ->    4 (A) B                    
 -0.0870923888       1 (A) A                   ->    2 (A) A                    
  0.0870923888       1 (A) B                   ->    2 (A) B                    
  0.4405005796       1 (A) A       1 (A) B     ->    2 (A) A       3 (A) B      
 -0.4405005796       1 (A) A       1 (A) B     ->    3 (A) A       2 (A) B      
 -0.4405005796       1 (A) A       1 (A) B     ->    3 (A) B       2 (A) A      
  0.4405005796       1 (A) A       1 (A) B     ->    2 (A) B       3 (A) A      
 -0.4405005796       1 (A) B       1 (A) A     ->    2 (A) A       3 (A) B      
  0.4405005796       1 (A) B       1 (A) A     ->    3 (A) A       2 (A) B      
 -0.4405005796       1 (A) B       1 (A) A     ->    2 (A) B       3 (A) A      
  0.4405005796       1 (A) B       1 (A) A     ->    3 (A) B       2 (A) A      
  0.0533014830       1 (A) A       1 (A) B     ->    3 (A) A       4 (A) B      
 -0.0533014830       1 (A) A       1 (A) B     ->    4 (A) A       3 (A) B      
 -0.0533014830       1 (A) A       1 (A) B     ->    4 (A) B       3 (A) A      
  0.0533014830       1 (A) A       1 (A) B     ->    3 (A) B       4 (A) A      
 -0.0533014830       1 (A) B       1 (A) A     ->    3 (A) A       4 (A) B      
  0.0533014830       1 (A) B       1 (A) A     ->    4 (A) A       3 (A) B      
 -0.0533014830       1 (A) B       1 (A) A     ->    3 (A) B       4 (A) A      
  0.0533014830       1 (A) B       1 (A) A     ->    4 (A) B       3 (A) A      

              Summary of significant orbitals:

               Number  Type             Irrep      Energy
               1       Occ  Alpha       1 (A)     -0.3790
               1       Occ  Beta        1 (A)     -0.3790
               2       Vir  Alpha       2 (A)     -0.0236
               3       Vir  Alpha       3 (A)      1.0052
               4       Vir  Alpha       4 (A)      1.0290
               2       Vir  Beta        2 (A)     -0.0236
               3       Vir  Beta        3 (A)      1.0052
               4       Vir  Beta        4 (A)      1.0290


 EEs and amplitudes of EOMEE has be exported to fchk file
Running a double precision version
      EOM-CCSD/MP2 left amplitudes will be solved using Davidson.
        Amplitudes will be solved using MOM  algorithm.
     Hard-coded thresholds: 
     LinDepThresh=1.00e-15  NormThresh=1.00e-06  ReorthogonThresh=1.00e-02

      Roots     MaxVec    MaxIter   Precond   Conv      Shift    
      3         120       60        1         1.00e-05  0.00e+00  
 ------------------------------------------------------------------------------
      Iter ConvRoots NVecs ResNorm Current eigenvalues (eV)
 ------------------------------------------------------------------------------
      0    1      3     1.48e-03   0.7614   26.9385*  27.4580   
      1    3      5     3.01e-31   0.7614*  26.9385*  27.4569*  

     Davidson procedure converged

 Excited state properties for  EOMEE-CCSD transition 1/A
 Dipole moment (a.u.): 0.000000 (X -0.000000, Y -0.000000, Z 0.000000)
 R-squared (a.u.): 13.124965 (XX 1.886418, YY 1.886418, ZZ 9.352128)
 Gauge origin (a.u.): (0.000000, 0.000000, 0.000000)
 Angular momentum (a.u.) against gauge origin: 
 (X 0.000000i, Y 0.000000i, Z 0.000000i)
 Traces of the OPDMs: Tr(AA) 1.000000, Tr(BB) 1.000000

 Excited state properties for  EOMEE-CCSD transition 2/A
 Dipole moment (a.u.): 0.000000 (X -0.000000, Y -0.000000, Z 0.000000)
 R-squared (a.u.): 13.980381 (XX 2.406822, YY 2.406822, ZZ 9.166736)
 Gauge origin (a.u.): (0.000000, 0.000000, 0.000000)
 Angular momentum (a.u.) against gauge origin: 
 (X 0.000000i, Y 0.000000i, Z 0.000000i)
 Traces of the OPDMs: Tr(AA) 1.000000, Tr(BB) 1.000000

 Excited state properties for  EOMEE-CCSD transition 3/A
 Dipole moment (a.u.): 0.000000 (X -0.000000, Y -0.000000, Z 0.000000)
 R-squared (a.u.): 15.237907 (XX 2.448955, YY 2.448955, ZZ 10.339996)
 Gauge origin (a.u.): (0.000000, 0.000000, 0.000000)
 Angular momentum (a.u.) against gauge origin: 
 (X 0.000000i, Y 0.000000i, Z 0.000000i)
 Traces of the OPDMs: Tr(AA) 1.000000, Tr(BB) 1.000000

 EOMEE-CCSD calculation:   CPU 1.11 s  wall 0.77 s

 Total ccman2 time:   CPU 1.93 s  wall 1.24 s


 --------------------------------------------------------------

                    Orbital Energies (a.u.)
 --------------------------------------------------------------

 Alpha MOs
 -- Occupied --
 -0.3790
 -- Virtual --
 -0.0236   1.0052   1.0290
 --------------------------------------------------------------

          Ground-State Mulliken Net Atomic Charges

     Atom                 Charge (a.u.)
  ----------------------------------------
      1 H                     0.000000
      2 H                     0.000000
  ----------------------------------------
  Sum of atomic charges =     0.000000

 -----------------------------------------------------------------
                    Cartesian Multipole Moments
 -----------------------------------------------------------------
    Charge (ESU x 10^10)
                 0.0000
    Dipole Moment (Debye)
         X       0.0000      Y       0.0000      Z      -0.0000
       Tot       0.0000
    Quadrupole Moments (Debye-Ang)
        XX      -2.6360     XY       0.0000     YY      -2.6360
        XZ       0.0000     YZ       0.0000     ZZ      -1.9866
    Octopole Moments (Debye-Ang^2)
       XXX       0.0000    XXY       0.0000    XYY       0.0000
       YYY       0.0000    XXZ      -0.0000    XYZ       0.0000
       YYZ      -0.0000    XZZ       0.0000    YZZ       0.0000
       ZZZ      -0.0000
    Hexadecapole Moments (Debye-Ang^3)
      XXXX      -2.8480   XXXY       0.0000   XXYY      -0.9493
      XYYY       0.0000   YYYY      -2.8480   XXXZ       0.0000
      XXYZ       0.0000   XYYZ       0.0000   YYYZ       0.0000
      XXZZ      -3.3357   XYZZ       0.0000   YYZZ      -3.3357
      XZZZ       0.0000   YZZZ       0.0000   ZZZZ     -16.4731
 -----------------------------------------------------------------
 Total job time:  2.48s(wall), 3.66s(cpu) 
 Thu Aug 11 11:20:15 2022

        *************************************************************
        *                                                           *
        *  Thank you very much for using Q-Chem.  Have a nice day.  *
        *                                                           *
        *************************************************************


