                  Welcome to Q-Chem
     A Quantum Leap Into The Future Of Chemistry


 Q-Chem 5.4 (devel), Q-Chem, Inc., Pleasanton, CA (2021)

 E. Epifanovsky,  A. T. B. Gilbert,  Xintian Feng,  Joonho Lee,  Yuezhi Mao,  
 N. Mardirossian,  P. Pokhilko,  A. White,  M. Wormit,  M. P. Coons,  
 A. L. Dempwolff,  Zhengting Gan,  D. Hait,  P. R. Horn,  L. D. Jacobson,  
 I. Kaliman,  J. Kussmann,  A. W. Lange,  Ka Un Lao,  D. S. Levine,  Jie Liu,  
 S. C. McKenzie,  A. F. Morrison,  K. Nanda,  F. Plasser,  D. R. Rehn,  
 M. L. Vidal,  Zhi-Qiang You,  Ying Zhu,  B. Alam,  B. Albrecht,  
 A. Aldossary,  E. Alguire,  J. H. Andersen,  D. Barton,  K. Begam,  A. Behn,  
 Y. A. Bernard,  E. J. Berquist,  H. Burton,  A. Carreras,  K. Carter-Fenk,  
 R. Chakraborty,  A. D. Chien,  K. D. Closser,  V. Cofer-Shabica,  
 S. Dasgupta,  Jia Deng,  M. de Wergifosse,  M. Diedenhofen,  Hainam Do,  
 S. Ehlert,  Po-Tung Fang,  S. Fatehi,  Qingguo Feng,  T. Friedhoff,  
 J. Gayvert,  Qinghui Ge,  G. Gidofalvi,  M. Goldey,  J. Gomes,  
 C. Gonzalez-Espinoza,  S. Gulania,  A. Gunina,  M. W. D. Hanson-Heine,  
 P. H. P. Harbach,  A. W. Hauser,  M. F. Herbst,  M. Hernandez Vera,  
 M. Hodecker,  Z. C. Holden,  S. Houck,  Xunkun Huang,  Kerwin Hui,  
 B. C. Huynh,  M. Ivanov,  Hyunjun Ji,  Hanjie Jiang,  B. Kaduk,  S. Kaehler,  
 K. Khistyaev,  Jaehoon Kim,  P. Klunzinger,  Z. Koczor-Benda,  
 Joong Hoon Koh,  D. Kosenkov,  L. Koulias,  T. Kowalczyk,  C. M. Krauter,  
 K. Kue,  A. Kunitsa,  T. Kus,  A. Landau,  K. V. Lawler,  D. Lefrancois,  
 S. Lehtola,  Rain Li,  Yi-Pei Li,  Jiashu Liang,  M. Liebenthal,  
 Hung-Hsuan Lin,  You-Sheng Lin,  Fenglai Liu,  Kuan-Yu Liu,  
 M. Loipersberger,  A. Luenser,  A. Manjanath,  P. Manohar,  E. Mansoor,  
 S. F. Manzer,  Shan-Ping Mao,  A. V. Marenich,  T. Markovich,  S. Mason,  
 S. A. Maurer,  P. F. McLaughlin,  M. F. S. J. Menger,  J.-M. Mewes,  
 S. A. Mewes,  P. Morgante,  J. W. Mullinax,  K. J. Oosterbaan,  G. Paran,  
 Alexander C. Paul,  Suranjan K. Paul,  F. Pavosevic,  Zheng Pei,  S. Prager,  
 E. I. Proynov,  E. Ramos,  B. Rana,  A. E. Rask,  A. Rettig,  R. M. Richard,  
 F. Rob,  E. Rossomme,  T. Scheele,  M. Scheurer,  M. Schneider,  
 N. Sergueev,  S. M. Sharada,  W. Skomorowski,  D. W. Small,  C. J. Stein,  
 Yu-Chuan Su,  E. J. Sundstrom,  Zhen Tao,  J. Thirman,  T. Tsuchimochi,  
 N. M. Tubman,  S. P. Veccham,  O. Vydrov,  J. Wenzel,  J. Witte,  A. Yamada,  
 Kun Yao,  S. Yeganeh,  S. R. Yost,  A. Zech,  Igor Ying Zhang,  Xing Zhang,  
 Yu Zhang,  D. Zuev,  A. Aspuru-Guzik,  A. T. Bell,  N. A. Besley,  
 K. B. Bravaya,  B. R. Brooks,  D. Casanova,  Jeng-Da Chai,  S. Coriani,  
 C. J. Cramer,  A. E. DePrince, III,  R. A. DiStasio Jr.,  A. Dreuw,  
 B. D. Dunietz,  T. R. Furlani,  W. A. Goddard III,  S. Grimme,  
 S. Hammes-Schiffer,  T. Head-Gordon,  W. J. Hehre,  Chao-Ping Hsu,  
 T.-C. Jagau,  Yousung Jung,  A. Klamt,  Jing Kong,  D. S. Lambrecht,  
 WanZhen Liang,  N. J. Mayhall,  C. W. McCurdy,  J. B. Neaton,  
 C. Ochsenfeld,  J. A. Parkhill,  R. Peverati,  V. A. Rassolov,  Yihan Shao,  
 L. V. Slipchenko,  T. Stauch,  R. P. Steele,  J. E. Subotnik,  
 A. J. W. Thom,  A. Tkatchenko,  D. G. Truhlar,  T. Van Voorhis,  
 T. A. Wesolowski,  K. B. Whaley,  H. L. Woodcock III,  P. M. Zimmerman,  
 S. Faraji,  P. M. W. Gill,  M. Head-Gordon,  J. M. Herbert,  A. I. Krylov

 Additional authors for Version 5.4.1: 
 S. Kotaru,  Shaozhi Li,  Xiangyuan Li,  F. Matz,  A. Molle,  Haisheng Ren,  
 Yingli Su,  Hung-Yi Tsai,  C. Utku,  Fang Wang

 Contributors to earlier versions of Q-Chem not listed above: 
 R. D. Adamson,  B. Austin,  R. Baer,  J. Baker,  G. J. O. Beran,  
 K. Brandhorst,  S. T. Brown,  E. F. C. Byrd,  A. K. Chakraborty,  
 G. K. L. Chan,  Chun-Min Chang,  Yunqing Chen,  C.-L. Cheng,  
 Siu Hung Chien,  D. M. Chipman,  D. L. Crittenden,  H. Dachsel,  
 R. J. Doerksen,  A. D. Dutoi,  R. G. Edgar,  J. Fosso-Tande,  
 L. Fusti-Molnar,  D. Ghosh,  A. Ghysels,  A. Golubeva-Zadorozhnaya,  
 J. Gonthier,  M. S. Gordon,  S. R. Gwaltney,  G. Hawkins,  J. E. Herr,  
 A. Heyden,  S. Hirata,  E. G. Hohenstein,  G. Kedziora,  F. J. Keil,  
 C. Kelley,  Jihan Kim,  R. A. King,  R. Z. Khaliullin,  P. P. Korambath,  
 W. Kurlancheek,  A. Laurent,  A. M. Lee,  M. S. Lee,  S. V. Levchenko,  
 Ching Yeh Lin,  D. Liotard,  E. Livshits,  R. C. Lochan,  I. Lotan,  
 L. A. Martinez-Martinez,  P. E. Maslen,  N. Nair,  D. P. O'Neill,  
 D. Neuhauser,  E. Neuscamman,  C. M. Oana,  R. Olivares-Amaya,  R. Olson,  
 T. M. Perrine,  B. Peters,  P. A. Pieniazek,  A. Prociuk,  Y. M. Rhee,  
 J. Ritchie,  M. A. Rohrdanz,  E. Rosta,  N. J. Russ,  H. F. Schaefer III,  
 M. W. Schmidt,  N. E. Schultz,  S. Sharma,  N. Shenvi,  C. D. Sherrill,  
 A. C. Simmonett,  A. Sodt,  T. Stein,  D. Stuck,  K. S. Thanthiriwatte,  
 V. Vanovschi,  L. Vogt,  Tao Wang,  A. Warshel,  M. A. Watson,  
 C. F. Williams,  Q. Wu,  X. Xu,  Jun Yang,  W. Zhang,  Yan Zhao

 Please cite Q-Chem as follows:
 Y. Shao et al., Mol. Phys. 113, 184-215 (2015)
 DOI: 10.1080/00268976.2014.952696

 Q-Chem 5.4.1 for Intel X86 EM64T Linux

 Parts of Q-Chem use Armadillo 9.900.5 (Nocturnal Misbehaviour).
 http://arma.sourceforge.net/

 Q-Chem begins on Thu Aug 11 11:26:35 2022  

orc44
 Host: 0

     Scratch files written to /scratch/yongbin/qchem2585//
 Processing $rem in /home/users/yongbin/software/yongbin_quantum/config/preferences:
 Processing $rem in /home/users/yongbin/.qchemrc:

 Checking the input file for inconsistencies... 	...done.

--------------------------------------------------------------
User input:
--------------------------------------------------------------
$comment
Hydrogen molecule
$end

$molecule
0 1
  Li        0.0000000000    0.0000000000    0.0000000000
  H         0.0000000000    0.0000000000    1.2000000000
$end

$rem
   n_frozen_core = 0
   print_qis = true
   BASIS                = sto-3g
   SYMMETRY             = false
   CC_SYMMETRY          = false
   METHOD               = eom-ccsd
   EE_SINGLETS          = [3]  ! Compute two EOM-EE singlet excited states
   EE_TRIPLETS          = [3]  ! Compute two EOM-EE triplet excited states
   CC_REF_PROP          = true ! Compute ground state properties
   CC_EOM_PROP          = true ! Compute excited state properties
   CC_OSFNO             = true
   GUI                  = 2
$end                  
--------------------------------------------------------------
 ----------------------------------------------------------------
             Standard Nuclear Orientation (Angstroms)
    I     Atom           X                Y                Z
 ----------------------------------------------------------------
    1      Li      0.0000000000     0.0000000000    -0.3000000000
    2      H       0.0000000000     0.0000000000     0.9000000000
 ----------------------------------------------------------------
 Molecular Point Group                 C*v   NOp =***
 Largest Abelian Subgroup              C2v   NOp =  1
 Nuclear Repulsion Energy =           1.32294303 hartrees
 There are        2 alpha and        2 beta electrons
 Requested basis set is STO-3G
 There are 3 shells and 6 basis functions
 Total memory of 2000 MB is distributed as follows: 
   MEM_STATIC is set to 192 MB
   QALLOC/CCMAN JOB total memory use is  1808 MB
 Warning: actual memory use might exceed 2000 MB

 Total QAlloc Memory Limit   2000 MB
 Mega-Array Size       188 MB
 MEM_STATIC part       192 MB

                       Distance Matrix (Angstroms)
             Li(  1)
   H (  2)  1.200000

 A cutoff of  1.0D-14 yielded      6 shell pairs
 There are        27 function pairs
 Smallest overlap matrix eigenvalue = 2.56E-01

 Scale SEOQF with 1.000000e+00/1.000000e+00/1.000000e+00

 Standard Electronic Orientation quadrupole field applied
 Nucleus-field energy     =    -0.0000000012 hartrees
 Guess from superposition of atomic densities
 Warning:  Energy on first SCF cycle will be non-variational
 SAD guess density has 4.000000 electrons

 -----------------------------------------------------------------------
  General SCF calculation program by
  Eric Jon Sundstrom, Paul Horn, Yuezhi Mao, Dmitri Zuev, Alec White,
  David Stuck, Shaama M.S., Shane Yost, Joonho Lee, David Small,
  Daniel Levine, Susi Lehtola, Hugh Burton, Evgeny Epifanovsky,
  Bang C. Huynh
 -----------------------------------------------------------------------
 Hartree-Fock
 using 20 threads for integral computing
 -------------------------------------------------------
 OpenMP Integral computing Module                
 Release: version 1.0, May 2013, Q-Chem Inc. Pittsburgh 
 -------------------------------------------------------
 A restricted SCF calculation will be
 performed using DIIS
 SCF converges when DIIS error is below 1.0e-08
 ---------------------------------------
  Cycle       Energy         DIIS error
 ---------------------------------------
    1      -7.6096504028      8.21e-02  
    2      -7.8268849506      2.36e-02  
    3      -7.8343381962      5.69e-03  
    4      -7.8353771285      2.24e-03  
    5      -7.8356155856      9.39e-05  
    6      -7.8356158175      1.88e-05  
    7      -7.8356158254      2.20e-07  
    8      -7.8356158254      6.37e-08  
    9      -7.8356158254      2.20e-09  Convergence criterion met
 ---------------------------------------
 SCF time:   CPU 1.00s  wall 1.00s 
 SCF   energy in the final basis set =       -7.8356158254
 Total energy in the final basis set =       -7.8356158254


 ------------------------------------------------------------------------------

   CCMAN2: suite of methods based on coupled cluster
           and equation of motion theories.

   Components:
   * libvmm-1.3-trunk
     by Evgeny Epifanovsky, Ilya Kaliman.
   * libtensor-2.5-trunk
     by Evgeny Epifanovsky, Michael Wormit, Dmitry Zuev, Sam Manzer, 
        Ilya Kaliman.
   * libcc-2.5-trunk
     by Evgeny Epifanovsky, Arik Landau, Tomasz Kus, Kirill Khistyaev, 
        Dmitry Zuev, Prashant Manohar, Xintian Feng, Anna Krylov, 
        Matthew Goldey, Alec White, Thomas Jagau, Kaushik Nanda, 
        Anastasia Gunina, Alexander Kunitsa, Joonho Lee.

   CCMAN original authors:
   Anna I. Krylov, C. David Sherrill, Steven R. Gwaltney,
   Edward F. C. Byrd (2000)
   Sergey V. Levchenko, Lyudmila V. Slipchenko, Tao Wang,
   Ana-Maria C. Cristian (2003)
   Piotr A. Pieniazek, C. Melania Oana, Evgeny Epifanovsky (2007)
   Prashant Manohar (2009)

 ------------------------------------------------------------------------------


 Allocating and initializing 1808MB of RAM...
 Calculation will run on 20 cores.


 Occupation and symmetry of molecular orbitals

 Point group: C1 (1 irreducible representation).

                           A     All 
 -------------------------------------
 All molecular orbitals:
  - Alpha                  6     6   
  - Beta                   6     6   
 -------------------------------------
 Alpha orbitals:
  - Frozen occupied        0     0   
  - Active occupied        2     2   
  - Active virtual         4     4   
  - Frozen virtual         0     0   
 -------------------------------------
 Beta orbitals:
  - Frozen occupied        0     0   
  - Active occupied        2     2   
  - Active virtual         4     4   
  - Frozen virtual         0     0   
 -------------------------------------

 Import integrals:   CPU 0.00 s  wall 0.00 s

 Import integrals:   CPU 0.18 s  wall 0.09 s

 Run QIS:   CPU 0.01 s  wall 0.01 s

 MP2 amplitudes:   CPU 0.00 s  wall 0.00 s

Running a double precision version
           CCSD T amplitudes will be solved using DIIS.

           Start     Size      MaxIter   EConv     TConv     
           3         7         100       1.00e-06  1.00e-04  
 ------------------------------------------------------------------------------
           Energy (a.u.)   Ediff      Tdiff       Comment
 ------------------------------------------------------------------------------
            -7.84679704                           
     1      -7.85033361   3.54e-03   1.13e-01     
     2      -7.85155334   1.22e-03   3.25e-02     
     3      -7.85200604   4.53e-04   1.05e-02     
     4      -7.85234062   3.35e-04   7.04e-03     Switched to DIIS steps.
     5      -7.85241924   7.86e-05   4.38e-03     
     6      -7.85242433   5.09e-06   5.08e-04     
     7      -7.85242435   1.76e-08   4.82e-05     
 ------------------------------------------------------------------------------
            -7.85242435                           CCSD T converged.

End of double precision
 SCF energy                 = -7.83561583
 MP2 energy                 = -7.84679704
 CCSD correlation energy    = -0.01680853
 CCSD total energy          = -7.85242435

 CCSD  T1^2 = 0.0020  T2^2 = 0.0164  Leading amplitudes:

 Amplitude    Orbitals with energies
 -0.0313012113       2 (A) A                   ->    3 (A) A                    
                    -0.3130                          0.0794                     
 -0.0313012113       2 (A) B                   ->    3 (A) B                    
                    -0.3130                          0.0794                     
 -0.0010097563       2 (A) A                   ->    6 (A) A                    
                    -0.3130                          0.6219                     
 -0.0010097563       2 (A) B                   ->    6 (A) B                    
                    -0.3130                          0.6219                     

 Amplitude    Orbitals with energies
 -0.0966116973       2 (A) A       2 (A) B     ->    6 (A) A       6 (A) B      
                    -0.3130       -0.3130            0.6219        0.6219       
  0.0966116973       2 (A) A       2 (A) B     ->    6 (A) B       6 (A) A      
                    -0.3130       -0.3130            0.6219        0.6219       
  0.0966116973       2 (A) B       2 (A) A     ->    6 (A) A       6 (A) B      
                    -0.3130       -0.3130            0.6219        0.6219       
 -0.0966116973       2 (A) B       2 (A) A     ->    6 (A) B       6 (A) A      
                    -0.3130       -0.3130            0.6219        0.6219       

 Computing CCSD intermediates for later calculations in double precision
 Finished.

Running a double precision version
           CCSD Lambda amplitudes will be solved using DIIS.
           Start     Size      MaxIter   EConv     LConv     
           3         7         100       1.00e-06  1.00e-04  
 ------------------------------------------------------------------------------
            Enorm      Ldiff       Comment
 ------------------------------------------------------------------------------
     1     3.96e-03   3.16e-03     
     2     1.11e-03   1.02e-03     
     3     5.06e-04   4.18e-04     
     4     2.16e-04   3.12e-04     Switched to DIIS steps.
     5     3.01e-05   1.83e-04     
     6     4.95e-06   1.70e-05     
     7     9.16e-07   1.41e-07     
 ------------------------------------------------------------------------------
                                   CCSD Lambda converged.

 Computing density matrices in double precision...
 Computing density matrices... Done.
 Reference state properties
 Dipole moment (a.u.): 1.839992 (X 0.000000, Y 0.000000, Z -1.839992)
 R-squared (a.u.): 15.849107 (XX 3.894662, YY 3.894662, ZZ 8.059784)
 Gauge origin (a.u.): (0.000000, 0.000000, 0.000000)
 Angular momentum (a.u.) against gauge origin: 
 (X 0.000000i, Y 0.000000i, Z 0.000000i)
 Traces of the OPDMs: Tr(AA) 2.000000, Tr(BB) 2.000000
 Density matrix was written to a file for further analysis.

 CCSD calculation:   CPU 0.55 s  wall 0.39 s

        Solving for EOMEE-CCSD A singlet states.

Running a double precision version
        EOMEE-CCSD/MP2 right amplitudes will be solved using Davidson.
        Amplitudes will be solved using standard  algorithm.
     Hard-coded thresholds: 
     LinDepThresh=1.00e-15  NormThresh=1.00e-06  ReorthogonThresh=1.00e-02

      Roots     MaxVec    MaxIter   Precond   Conv      Shift    
      3         120       60        1         1.00e-05  0.00e+00  
 ------------------------------------------------------------------------------
      Iter ConvRoots NVecs ResNorm Current eigenvalues (eV)
 ------------------------------------------------------------------------------
      0    0      3     3.20e-02   5.2912   6.9156   6.9156   
      1    0      6     1.76e-02   4.2063   5.6570   5.6570   
      2    0      9     6.91e-04   3.9780   5.4849   5.4849   
      3    0      12    5.78e-05   3.9723   5.4840   5.4840   
      4    3      15    1.22e-06   3.9711*  5.4848*  5.4848*  

     Davidson procedure converged

 EOMEE transition 1/A
 Total energy = -7.70648922 a.u.  Excitation energy = 3.97109698 eV.
 R0^2 = 0.0034  R1^2 = 0.9115  R2^2 = 0.0885  Res^2 = 2.99e-06
 Conv-d = yes

 Amplitude    Transitions between orbitals
  0.6748088327       2 (A) A                   ->    3 (A) A                    
  0.6748088327       2 (A) B                   ->    3 (A) B                    
  0.0194534299       2 (A) A                   ->    6 (A) A                    
  0.0194534299       2 (A) B                   ->    6 (A) B                    
 -0.0047625844       1 (A) A                   ->    3 (A) A                    
 -0.0047625844       1 (A) B                   ->    3 (A) B                    
 -0.0015287056       1 (A) A                   ->    6 (A) A                    
 -0.0015287056       1 (A) B                   ->    6 (A) B                    
  0.1986223115       2 (A) A       2 (A) B     ->    3 (A) A       3 (A) B      
 -0.1986223115       2 (A) A       2 (A) B     ->    3 (A) B       3 (A) A      
 -0.1986223115       2 (A) B       2 (A) A     ->    3 (A) A       3 (A) B      
  0.1986223115       2 (A) B       2 (A) A     ->    3 (A) B       3 (A) A      
 -0.1520746637       2 (A) A       2 (A) B     ->    3 (A) A       6 (A) B      
 -0.1520746637       2 (A) A       2 (A) B     ->    6 (A) A       3 (A) B      
  0.1520746637       2 (A) A       2 (A) B     ->    6 (A) B       3 (A) A      
  0.1520746637       2 (A) A       2 (A) B     ->    3 (A) B       6 (A) A      
  0.1520746637       2 (A) B       2 (A) A     ->    3 (A) A       6 (A) B      
  0.1520746637       2 (A) B       2 (A) A     ->    6 (A) A       3 (A) B      
 -0.1520746637       2 (A) B       2 (A) A     ->    3 (A) B       6 (A) A      
 -0.1520746637       2 (A) B       2 (A) A     ->    6 (A) B       3 (A) A      
 -0.0331659559       2 (A) A       2 (A) B     ->    6 (A) A       6 (A) B      
  0.0331659559       2 (A) A       2 (A) B     ->    6 (A) B       6 (A) A      
  0.0331659559       2 (A) B       2 (A) A     ->    6 (A) A       6 (A) B      
 -0.0331659559       2 (A) B       2 (A) A     ->    6 (A) B       6 (A) A      
  0.0274557159       2 (A) A       2 (A) B     ->    5 (A) A       5 (A) B      
 -0.0274557159       2 (A) A       2 (A) B     ->    5 (A) B       5 (A) A      
 -0.0274557159       2 (A) B       2 (A) A     ->    5 (A) A       5 (A) B      
  0.0274557159       2 (A) B       2 (A) A     ->    5 (A) B       5 (A) A      
  0.0274557158       2 (A) A       2 (A) B     ->    4 (A) A       4 (A) B      
 -0.0274557158       2 (A) A       2 (A) B     ->    4 (A) B       4 (A) A      
 -0.0274557158       2 (A) B       2 (A) A     ->    4 (A) A       4 (A) B      
  0.0274557158       2 (A) B       2 (A) A     ->    4 (A) B       4 (A) A      
  0.0062345847       1 (A) A       2 (A) B     ->    3 (A) A       3 (A) B      
  0.0062345847       2 (A) A       1 (A) B     ->    3 (A) A       3 (A) B      
 -0.0062345847       1 (A) A       2 (A) B     ->    3 (A) B       3 (A) A      
 -0.0062345847       2 (A) A       1 (A) B     ->    3 (A) B       3 (A) A      
 -0.0062345847       2 (A) B       1 (A) A     ->    3 (A) A       3 (A) B      
 -0.0062345847       1 (A) B       2 (A) A     ->    3 (A) A       3 (A) B      
  0.0062345847       1 (A) B       2 (A) A     ->    3 (A) B       3 (A) A      
  0.0062345847       2 (A) B       1 (A) A     ->    3 (A) B       3 (A) A      
 -0.0041082412       1 (A) A       1 (A) B     ->    3 (A) A       3 (A) B      
  0.0041082412       1 (A) A       1 (A) B     ->    3 (A) B       3 (A) A      
  0.0041082412       1 (A) B       1 (A) A     ->    3 (A) A       3 (A) B      
 -0.0041082412       1 (A) B       1 (A) A     ->    3 (A) B       3 (A) A      
 -0.0027722353       1 (A) A       2 (A) A     ->    3 (A) A       6 (A) A      
  0.0027722353       1 (A) A       2 (A) A     ->    6 (A) A       3 (A) A      
  0.0027722353       2 (A) A       1 (A) A     ->    3 (A) A       6 (A) A      
 -0.0027722353       2 (A) A       1 (A) A     ->    6 (A) A       3 (A) A      
 -0.0027722353       1 (A) B       2 (A) B     ->    3 (A) B       6 (A) B      
  0.0027722353       1 (A) B       2 (A) B     ->    6 (A) B       3 (A) B      
  0.0027722353       2 (A) B       1 (A) B     ->    3 (A) B       6 (A) B      
 -0.0027722353       2 (A) B       1 (A) B     ->    6 (A) B       3 (A) B      
  0.0024743241       1 (A) A       2 (A) B     ->    4 (A) A       4 (A) B      
  0.0024743241       2 (A) A       1 (A) B     ->    4 (A) A       4 (A) B      
 -0.0024743241       1 (A) A       2 (A) B     ->    4 (A) B       4 (A) A      
 -0.0024743241       2 (A) A       1 (A) B     ->    4 (A) B       4 (A) A      
 -0.0024743241       2 (A) B       1 (A) A     ->    4 (A) A       4 (A) B      
 -0.0024743241       1 (A) B       2 (A) A     ->    4 (A) A       4 (A) B      
  0.0024743241       1 (A) B       2 (A) A     ->    4 (A) B       4 (A) A      
  0.0024743241       2 (A) B       1 (A) A     ->    4 (A) B       4 (A) A      
  0.0024743241       1 (A) A       2 (A) B     ->    5 (A) A       5 (A) B      
  0.0024743241       2 (A) A       1 (A) B     ->    5 (A) A       5 (A) B      
 -0.0024743241       1 (A) A       2 (A) B     ->    5 (A) B       5 (A) A      
 -0.0024743241       2 (A) A       1 (A) B     ->    5 (A) B       5 (A) A      
 -0.0024743241       2 (A) B       1 (A) A     ->    5 (A) A       5 (A) B      
 -0.0024743241       1 (A) B       2 (A) A     ->    5 (A) A       5 (A) B      
  0.0024743241       1 (A) B       2 (A) A     ->    5 (A) B       5 (A) A      
  0.0024743241       2 (A) B       1 (A) A     ->    5 (A) B       5 (A) A      
  0.0021140006       1 (A) A       2 (A) B     ->    6 (A) A       3 (A) B      
  0.0021140006       2 (A) A       1 (A) B     ->    3 (A) A       6 (A) B      
 -0.0021140006       1 (A) A       2 (A) B     ->    3 (A) B       6 (A) A      
 -0.0021140006       2 (A) A       1 (A) B     ->    6 (A) B       3 (A) A      
 -0.0021140006       2 (A) B       1 (A) A     ->    6 (A) A       3 (A) B      
 -0.0021140006       1 (A) B       2 (A) A     ->    3 (A) A       6 (A) B      
  0.0021140006       1 (A) B       2 (A) A     ->    6 (A) B       3 (A) A      
  0.0021140006       2 (A) B       1 (A) A     ->    3 (A) B       6 (A) A      
  0.0010378666       1 (A) A       2 (A) B     ->    6 (A) A       6 (A) B      
  0.0010378666       2 (A) A       1 (A) B     ->    6 (A) A       6 (A) B      
 -0.0010378666       1 (A) A       2 (A) B     ->    6 (A) B       6 (A) A      
 -0.0010378666       2 (A) A       1 (A) B     ->    6 (A) B       6 (A) A      
 -0.0010378666       2 (A) B       1 (A) A     ->    6 (A) A       6 (A) B      
 -0.0010378666       1 (A) B       2 (A) A     ->    6 (A) A       6 (A) B      
  0.0010378666       1 (A) B       2 (A) A     ->    6 (A) B       6 (A) A      
  0.0010378666       2 (A) B       1 (A) A     ->    6 (A) B       6 (A) A      
 -0.0006500269       1 (A) A       2 (A) B     ->    3 (A) A       6 (A) B      
 -0.0006500269       2 (A) A       1 (A) B     ->    6 (A) A       3 (A) B      
  0.0006500269       1 (A) A       2 (A) B     ->    6 (A) B       3 (A) A      
  0.0006500269       2 (A) A       1 (A) B     ->    3 (A) B       6 (A) A      
  0.0006500269       2 (A) B       1 (A) A     ->    3 (A) A       6 (A) B      
  0.0006500269       1 (A) B       2 (A) A     ->    6 (A) A       3 (A) B      
 -0.0006500269       1 (A) B       2 (A) A     ->    3 (A) B       6 (A) A      
 -0.0006500269       2 (A) B       1 (A) A     ->    6 (A) B       3 (A) A      
  0.0006467530       1 (A) A       1 (A) B     ->    3 (A) A       6 (A) B      
  0.0006467530       1 (A) A       1 (A) B     ->    6 (A) A       3 (A) B      
 -0.0006467530       1 (A) A       1 (A) B     ->    6 (A) B       3 (A) A      
 -0.0006467530       1 (A) A       1 (A) B     ->    3 (A) B       6 (A) A      
 -0.0006467530       1 (A) B       1 (A) A     ->    3 (A) A       6 (A) B      
 -0.0006467530       1 (A) B       1 (A) A     ->    6 (A) A       3 (A) B      
  0.0006467530       1 (A) B       1 (A) A     ->    3 (A) B       6 (A) A      
  0.0006467530       1 (A) B       1 (A) A     ->    6 (A) B       3 (A) A      
  0.0002571938       1 (A) A       1 (A) B     ->    6 (A) A       6 (A) B      
 -0.0002571938       1 (A) A       1 (A) B     ->    6 (A) B       6 (A) A      
 -0.0002571938       1 (A) B       1 (A) A     ->    6 (A) A       6 (A) B      
  0.0002571938       1 (A) B       1 (A) A     ->    6 (A) B       6 (A) A      
  0.0000645603       1 (A) A       1 (A) B     ->    4 (A) A       4 (A) B      
 -0.0000645603       1 (A) A       1 (A) B     ->    4 (A) B       4 (A) A      
 -0.0000645603       1 (A) B       1 (A) A     ->    4 (A) A       4 (A) B      
  0.0000645603       1 (A) B       1 (A) A     ->    4 (A) B       4 (A) A      
  0.0000645603       1 (A) A       1 (A) B     ->    5 (A) A       5 (A) B      
 -0.0000645603       1 (A) A       1 (A) B     ->    5 (A) B       5 (A) A      
 -0.0000645603       1 (A) B       1 (A) A     ->    5 (A) A       5 (A) B      
  0.0000645603       1 (A) B       1 (A) A     ->    5 (A) B       5 (A) A      

              Summary of significant orbitals:

               Number  Type             Irrep      Energy
               1       Occ  Alpha       1 (A)     -2.3499
               2       Occ  Alpha       2 (A)     -0.3130
               1       Occ  Beta        1 (A)     -2.3499
               2       Occ  Beta        2 (A)     -0.3130
               3       Vir  Alpha       3 (A)      0.0794
               4       Vir  Alpha       4 (A)      0.1615
               5       Vir  Alpha       5 (A)      0.1615
               6       Vir  Alpha       6 (A)      0.6219
               3       Vir  Beta        3 (A)      0.0794
               4       Vir  Beta        4 (A)      0.1615
               5       Vir  Beta        5 (A)      0.1615
               6       Vir  Beta        6 (A)      0.6219


 EOMEE transition 2/A
 Total energy = -7.65086317 a.u.  Excitation energy = 5.48475855 eV.
 R0^2 = 0.0000  R1^2 = 0.9113  R2^2 = 0.0887  Res^2 = 3.32e-07
 Conv-d = yes

 Amplitude    Transitions between orbitals
 -0.6749876177       2 (A) A                   ->    5 (A) A                    
 -0.6749876177       2 (A) B                   ->    5 (A) B                    
  0.0066738038       1 (A) A                   ->    5 (A) A                    
  0.0066738038       1 (A) B                   ->    5 (A) B                    
  0.1690561433       2 (A) A       2 (A) B     ->    5 (A) A       6 (A) B      
  0.1690561433       2 (A) A       2 (A) B     ->    6 (A) A       5 (A) B      
 -0.1690561433       2 (A) A       2 (A) B     ->    6 (A) B       5 (A) A      
 -0.1690561433       2 (A) A       2 (A) B     ->    5 (A) B       6 (A) A      
 -0.1690561433       2 (A) B       2 (A) A     ->    5 (A) A       6 (A) B      
 -0.1690561433       2 (A) B       2 (A) A     ->    6 (A) A       5 (A) B      
  0.1690561433       2 (A) B       2 (A) A     ->    5 (A) B       6 (A) A      
  0.1690561433       2 (A) B       2 (A) A     ->    6 (A) B       5 (A) A      
 -0.1253919054       2 (A) A       2 (A) B     ->    3 (A) A       5 (A) B      
 -0.1253919054       2 (A) A       2 (A) B     ->    5 (A) A       3 (A) B      
  0.1253919054       2 (A) A       2 (A) B     ->    5 (A) B       3 (A) A      
  0.1253919054       2 (A) A       2 (A) B     ->    3 (A) B       5 (A) A      
  0.1253919054       2 (A) B       2 (A) A     ->    3 (A) A       5 (A) B      
  0.1253919054       2 (A) B       2 (A) A     ->    5 (A) A       3 (A) B      
 -0.1253919054       2 (A) B       2 (A) A     ->    3 (A) B       5 (A) A      
 -0.1253919054       2 (A) B       2 (A) A     ->    5 (A) B       3 (A) A      
 -0.0034889291       1 (A) A       2 (A) B     ->    3 (A) A       5 (A) B      
 -0.0034889291       2 (A) A       1 (A) B     ->    5 (A) A       3 (A) B      
  0.0034889291       1 (A) A       2 (A) B     ->    5 (A) B       3 (A) A      
  0.0034889291       2 (A) A       1 (A) B     ->    3 (A) B       5 (A) A      
  0.0034889291       2 (A) B       1 (A) A     ->    3 (A) A       5 (A) B      
  0.0034889291       1 (A) B       2 (A) A     ->    5 (A) A       3 (A) B      
 -0.0034889291       1 (A) B       2 (A) A     ->    3 (A) B       5 (A) A      
 -0.0034889291       2 (A) B       1 (A) A     ->    5 (A) B       3 (A) A      
 -0.0030529370       1 (A) A       2 (A) B     ->    5 (A) A       3 (A) B      
 -0.0030529370       2 (A) A       1 (A) B     ->    3 (A) A       5 (A) B      
  0.0030529370       1 (A) A       2 (A) B     ->    3 (A) B       5 (A) A      
  0.0030529370       2 (A) A       1 (A) B     ->    5 (A) B       3 (A) A      
  0.0030529370       2 (A) B       1 (A) A     ->    5 (A) A       3 (A) B      
  0.0030529370       1 (A) B       2 (A) A     ->    3 (A) A       5 (A) B      
 -0.0030529370       1 (A) B       2 (A) A     ->    5 (A) B       3 (A) A      
 -0.0030529370       2 (A) B       1 (A) A     ->    3 (A) B       5 (A) A      
  0.0029326470       1 (A) A       2 (A) B     ->    5 (A) A       6 (A) B      
  0.0029326470       2 (A) A       1 (A) B     ->    6 (A) A       5 (A) B      
 -0.0029326470       1 (A) A       2 (A) B     ->    6 (A) B       5 (A) A      
 -0.0029326470       2 (A) A       1 (A) B     ->    5 (A) B       6 (A) A      
 -0.0029326470       2 (A) B       1 (A) A     ->    5 (A) A       6 (A) B      
 -0.0029326470       1 (A) B       2 (A) A     ->    6 (A) A       5 (A) B      
  0.0029326470       1 (A) B       2 (A) A     ->    5 (A) B       6 (A) A      
  0.0029326470       2 (A) B       1 (A) A     ->    6 (A) B       5 (A) A      
  0.0029195252       1 (A) A       2 (A) A     ->    5 (A) A       6 (A) A      
 -0.0029195252       1 (A) A       2 (A) A     ->    6 (A) A       5 (A) A      
 -0.0029195252       2 (A) A       1 (A) A     ->    5 (A) A       6 (A) A      
  0.0029195252       2 (A) A       1 (A) A     ->    6 (A) A       5 (A) A      
  0.0029195252       1 (A) B       2 (A) B     ->    5 (A) B       6 (A) B      
 -0.0029195252       1 (A) B       2 (A) B     ->    6 (A) B       5 (A) B      
 -0.0029195252       2 (A) B       1 (A) B     ->    5 (A) B       6 (A) B      
  0.0029195252       2 (A) B       1 (A) B     ->    6 (A) B       5 (A) B      
  0.0021908414       1 (A) A       1 (A) B     ->    3 (A) A       5 (A) B      
  0.0021908414       1 (A) A       1 (A) B     ->    5 (A) A       3 (A) B      
 -0.0021908414       1 (A) A       1 (A) B     ->    5 (A) B       3 (A) A      
 -0.0021908414       1 (A) A       1 (A) B     ->    3 (A) B       5 (A) A      
 -0.0021908414       1 (A) B       1 (A) A     ->    3 (A) A       5 (A) B      
 -0.0021908414       1 (A) B       1 (A) A     ->    5 (A) A       3 (A) B      
  0.0021908414       1 (A) B       1 (A) A     ->    3 (A) B       5 (A) A      
  0.0021908414       1 (A) B       1 (A) A     ->    5 (A) B       3 (A) A      
 -0.0006761359       1 (A) A       1 (A) B     ->    5 (A) A       6 (A) B      
 -0.0006761359       1 (A) A       1 (A) B     ->    6 (A) A       5 (A) B      
  0.0006761359       1 (A) A       1 (A) B     ->    6 (A) B       5 (A) A      
  0.0006761359       1 (A) A       1 (A) B     ->    5 (A) B       6 (A) A      
  0.0006761359       1 (A) B       1 (A) A     ->    5 (A) A       6 (A) B      
  0.0006761359       1 (A) B       1 (A) A     ->    6 (A) A       5 (A) B      
 -0.0006761359       1 (A) B       1 (A) A     ->    5 (A) B       6 (A) A      
 -0.0006761359       1 (A) B       1 (A) A     ->    6 (A) B       5 (A) A      
 -0.0004385655       1 (A) A       2 (A) A     ->    3 (A) A       5 (A) A      
  0.0004385655       1 (A) A       2 (A) A     ->    5 (A) A       3 (A) A      
  0.0004385655       2 (A) A       1 (A) A     ->    3 (A) A       5 (A) A      
 -0.0004385655       2 (A) A       1 (A) A     ->    5 (A) A       3 (A) A      
 -0.0004385655       1 (A) B       2 (A) B     ->    3 (A) B       5 (A) B      
  0.0004385655       1 (A) B       2 (A) B     ->    5 (A) B       3 (A) B      
  0.0004385655       2 (A) B       1 (A) B     ->    3 (A) B       5 (A) B      
 -0.0004385655       2 (A) B       1 (A) B     ->    5 (A) B       3 (A) B      
  0.0000192636       1 (A) A       2 (A) B     ->    6 (A) A       5 (A) B      
  0.0000192636       2 (A) A       1 (A) B     ->    5 (A) A       6 (A) B      
 -0.0000192636       1 (A) A       2 (A) B     ->    5 (A) B       6 (A) A      
 -0.0000192636       2 (A) A       1 (A) B     ->    6 (A) B       5 (A) A      
 -0.0000192636       2 (A) B       1 (A) A     ->    6 (A) A       5 (A) B      
 -0.0000192636       1 (A) B       2 (A) A     ->    5 (A) A       6 (A) B      
  0.0000192636       1 (A) B       2 (A) A     ->    6 (A) B       5 (A) A      
  0.0000192636       2 (A) B       1 (A) A     ->    5 (A) B       6 (A) A      

              Summary of significant orbitals:

               Number  Type             Irrep      Energy
               1       Occ  Alpha       1 (A)     -2.3499
               2       Occ  Alpha       2 (A)     -0.3130
               1       Occ  Beta        1 (A)     -2.3499
               2       Occ  Beta        2 (A)     -0.3130
               3       Vir  Alpha       3 (A)      0.0794
               5       Vir  Alpha       5 (A)      0.1615
               6       Vir  Alpha       6 (A)      0.6219
               3       Vir  Beta        3 (A)      0.0794
               5       Vir  Beta        5 (A)      0.1615
               6       Vir  Beta        6 (A)      0.6219


 EOMEE transition 3/A
 Total energy = -7.65086317 a.u.  Excitation energy = 5.48475856 eV.
 R0^2 = 0.0000  R1^2 = 0.9113  R2^2 = 0.0887  Res^2 = 3.32e-07
 Conv-d = yes

 Amplitude    Transitions between orbitals
  0.6749876177       2 (A) A                   ->    4 (A) A                    
  0.6749876177       2 (A) B                   ->    4 (A) B                    
 -0.0066738038       1 (A) A                   ->    4 (A) A                    
 -0.0066738038       1 (A) B                   ->    4 (A) B                    
 -0.1690561433       2 (A) A       2 (A) B     ->    4 (A) A       6 (A) B      
 -0.1690561433       2 (A) A       2 (A) B     ->    6 (A) A       4 (A) B      
  0.1690561433       2 (A) A       2 (A) B     ->    6 (A) B       4 (A) A      
  0.1690561433       2 (A) A       2 (A) B     ->    4 (A) B       6 (A) A      
  0.1690561433       2 (A) B       2 (A) A     ->    4 (A) A       6 (A) B      
  0.1690561433       2 (A) B       2 (A) A     ->    6 (A) A       4 (A) B      
 -0.1690561433       2 (A) B       2 (A) A     ->    4 (A) B       6 (A) A      
 -0.1690561433       2 (A) B       2 (A) A     ->    6 (A) B       4 (A) A      
  0.1253919054       2 (A) A       2 (A) B     ->    3 (A) A       4 (A) B      
  0.1253919054       2 (A) A       2 (A) B     ->    4 (A) A       3 (A) B      
 -0.1253919054       2 (A) A       2 (A) B     ->    4 (A) B       3 (A) A      
 -0.1253919054       2 (A) A       2 (A) B     ->    3 (A) B       4 (A) A      
 -0.1253919054       2 (A) B       2 (A) A     ->    3 (A) A       4 (A) B      
 -0.1253919054       2 (A) B       2 (A) A     ->    4 (A) A       3 (A) B      
  0.1253919054       2 (A) B       2 (A) A     ->    3 (A) B       4 (A) A      
  0.1253919054       2 (A) B       2 (A) A     ->    4 (A) B       3 (A) A      
  0.0034889291       1 (A) A       2 (A) B     ->    3 (A) A       4 (A) B      
  0.0034889291       2 (A) A       1 (A) B     ->    4 (A) A       3 (A) B      
 -0.0034889291       1 (A) A       2 (A) B     ->    4 (A) B       3 (A) A      
 -0.0034889291       2 (A) A       1 (A) B     ->    3 (A) B       4 (A) A      
 -0.0034889291       2 (A) B       1 (A) A     ->    3 (A) A       4 (A) B      
 -0.0034889291       1 (A) B       2 (A) A     ->    4 (A) A       3 (A) B      
  0.0034889291       1 (A) B       2 (A) A     ->    3 (A) B       4 (A) A      
  0.0034889291       2 (A) B       1 (A) A     ->    4 (A) B       3 (A) A      
  0.0030529370       1 (A) A       2 (A) B     ->    4 (A) A       3 (A) B      
  0.0030529370       2 (A) A       1 (A) B     ->    3 (A) A       4 (A) B      
 -0.0030529370       1 (A) A       2 (A) B     ->    3 (A) B       4 (A) A      
 -0.0030529370       2 (A) A       1 (A) B     ->    4 (A) B       3 (A) A      
 -0.0030529370       2 (A) B       1 (A) A     ->    4 (A) A       3 (A) B      
 -0.0030529370       1 (A) B       2 (A) A     ->    3 (A) A       4 (A) B      
  0.0030529370       1 (A) B       2 (A) A     ->    4 (A) B       3 (A) A      
  0.0030529370       2 (A) B       1 (A) A     ->    3 (A) B       4 (A) A      
 -0.0029326470       1 (A) A       2 (A) B     ->    4 (A) A       6 (A) B      
 -0.0029326470       2 (A) A       1 (A) B     ->    6 (A) A       4 (A) B      
  0.0029326470       1 (A) A       2 (A) B     ->    6 (A) B       4 (A) A      
  0.0029326470       2 (A) A       1 (A) B     ->    4 (A) B       6 (A) A      
  0.0029326470       2 (A) B       1 (A) A     ->    4 (A) A       6 (A) B      
  0.0029326470       1 (A) B       2 (A) A     ->    6 (A) A       4 (A) B      
 -0.0029326470       1 (A) B       2 (A) A     ->    4 (A) B       6 (A) A      
 -0.0029326470       2 (A) B       1 (A) A     ->    6 (A) B       4 (A) A      
 -0.0029195252       1 (A) A       2 (A) A     ->    4 (A) A       6 (A) A      
  0.0029195252       1 (A) A       2 (A) A     ->    6 (A) A       4 (A) A      
  0.0029195252       2 (A) A       1 (A) A     ->    4 (A) A       6 (A) A      
 -0.0029195252       2 (A) A       1 (A) A     ->    6 (A) A       4 (A) A      
 -0.0029195252       1 (A) B       2 (A) B     ->    4 (A) B       6 (A) B      
  0.0029195252       1 (A) B       2 (A) B     ->    6 (A) B       4 (A) B      
  0.0029195252       2 (A) B       1 (A) B     ->    4 (A) B       6 (A) B      
 -0.0029195252       2 (A) B       1 (A) B     ->    6 (A) B       4 (A) B      
 -0.0021908414       1 (A) A       1 (A) B     ->    3 (A) A       4 (A) B      
 -0.0021908414       1 (A) A       1 (A) B     ->    4 (A) A       3 (A) B      
  0.0021908414       1 (A) A       1 (A) B     ->    4 (A) B       3 (A) A      
  0.0021908414       1 (A) A       1 (A) B     ->    3 (A) B       4 (A) A      
  0.0021908414       1 (A) B       1 (A) A     ->    3 (A) A       4 (A) B      
  0.0021908414       1 (A) B       1 (A) A     ->    4 (A) A       3 (A) B      
 -0.0021908414       1 (A) B       1 (A) A     ->    3 (A) B       4 (A) A      
 -0.0021908414       1 (A) B       1 (A) A     ->    4 (A) B       3 (A) A      
  0.0006761359       1 (A) A       1 (A) B     ->    4 (A) A       6 (A) B      
  0.0006761359       1 (A) A       1 (A) B     ->    6 (A) A       4 (A) B      
 -0.0006761359       1 (A) A       1 (A) B     ->    6 (A) B       4 (A) A      
 -0.0006761359       1 (A) A       1 (A) B     ->    4 (A) B       6 (A) A      
 -0.0006761359       1 (A) B       1 (A) A     ->    4 (A) A       6 (A) B      
 -0.0006761359       1 (A) B       1 (A) A     ->    6 (A) A       4 (A) B      
  0.0006761359       1 (A) B       1 (A) A     ->    4 (A) B       6 (A) A      
  0.0006761359       1 (A) B       1 (A) A     ->    6 (A) B       4 (A) A      
  0.0004385655       1 (A) A       2 (A) A     ->    3 (A) A       4 (A) A      
 -0.0004385655       1 (A) A       2 (A) A     ->    4 (A) A       3 (A) A      
 -0.0004385655       2 (A) A       1 (A) A     ->    3 (A) A       4 (A) A      
  0.0004385655       2 (A) A       1 (A) A     ->    4 (A) A       3 (A) A      
  0.0004385655       1 (A) B       2 (A) B     ->    3 (A) B       4 (A) B      
 -0.0004385655       1 (A) B       2 (A) B     ->    4 (A) B       3 (A) B      
 -0.0004385655       2 (A) B       1 (A) B     ->    3 (A) B       4 (A) B      
  0.0004385655       2 (A) B       1 (A) B     ->    4 (A) B       3 (A) B      
 -0.0000192636       1 (A) A       2 (A) B     ->    6 (A) A       4 (A) B      
 -0.0000192636       2 (A) A       1 (A) B     ->    4 (A) A       6 (A) B      
  0.0000192636       1 (A) A       2 (A) B     ->    4 (A) B       6 (A) A      
  0.0000192636       2 (A) A       1 (A) B     ->    6 (A) B       4 (A) A      
  0.0000192636       2 (A) B       1 (A) A     ->    6 (A) A       4 (A) B      
  0.0000192636       1 (A) B       2 (A) A     ->    4 (A) A       6 (A) B      
 -0.0000192636       1 (A) B       2 (A) A     ->    6 (A) B       4 (A) A      
 -0.0000192636       2 (A) B       1 (A) A     ->    4 (A) B       6 (A) A      

              Summary of significant orbitals:

               Number  Type             Irrep      Energy
               1       Occ  Alpha       1 (A)     -2.3499
               2       Occ  Alpha       2 (A)     -0.3130
               1       Occ  Beta        1 (A)     -2.3499
               2       Occ  Beta        2 (A)     -0.3130
               3       Vir  Alpha       3 (A)      0.0794
               4       Vir  Alpha       4 (A)      0.1615
               6       Vir  Alpha       6 (A)      0.6219
               3       Vir  Beta        3 (A)      0.0794
               4       Vir  Beta        4 (A)      0.1615
               6       Vir  Beta        6 (A)      0.6219


 EEs and amplitudes of EOMEE has be exported to fchk file
Running a double precision version
      EOM-CCSD/MP2 left amplitudes will be solved using Davidson.
        Amplitudes will be solved using MOM  algorithm.
     Hard-coded thresholds: 
     LinDepThresh=1.00e-15  NormThresh=1.00e-06  ReorthogonThresh=1.00e-02

      Roots     MaxVec    MaxIter   Precond   Conv      Shift    
      3         120       60        1         1.00e-05  0.00e+00  
 ------------------------------------------------------------------------------
      Iter ConvRoots NVecs ResNorm Current eigenvalues (eV)
 ------------------------------------------------------------------------------
      0    0      3     4.26e-04   3.9711   5.4848   5.4848   
      1    0      6     1.57e-04   3.9703   5.4848   5.4848   
      2    2      9     8.00e-06   3.9703   5.4848*  5.4848*  
      3    3      10    1.89e-06   3.9704*  5.4848*  5.4848*  

     Davidson procedure converged

biorthogonolize_left_to_right(): degenerate block detected, ndeg=2

 Excited state properties for  EOMEE-CCSD transition 1/A
 Dipole moment (a.u.): 1.681670 (X 0.000000, Y 0.000000, Z 1.681670)
 R-squared (a.u.): 21.120711 (XX 4.324476, YY 4.324476, ZZ 12.471758)
 Gauge origin (a.u.): (0.000000, 0.000000, 0.000000)
 Angular momentum (a.u.) against gauge origin: 
 (X 0.000000i, Y 0.000000i, Z 0.000000i)
 Traces of the OPDMs: Tr(AA) 2.000000, Tr(BB) 2.000000

 Excited state properties for  EOMEE-CCSD transition 2/A
 Dipole moment (a.u.): 0.020124 (X 0.000000, Y 0.000000, Z 0.020124)
 R-squared (a.u.): 19.000792 (XX 5.843574, YY 5.843569, ZZ 7.313649)
 Gauge origin (a.u.): (0.000000, 0.000000, 0.000000)
 Angular momentum (a.u.) against gauge origin: 
 (X 0.000000i, Y 0.000000i, Z 0.000000i)
 Traces of the OPDMs: Tr(AA) 2.000000, Tr(BB) 2.000000

 Excited state properties for  EOMEE-CCSD transition 3/A
 Dipole moment (a.u.): 0.020124 (X 0.000000, Y 0.000000, Z 0.020124)
 R-squared (a.u.): 19.000792 (XX 5.843569, YY 5.843574, ZZ 7.313649)
 Gauge origin (a.u.): (0.000000, 0.000000, 0.000000)
 Angular momentum (a.u.) against gauge origin: 
 (X 0.000000i, Y 0.000000i, Z 0.000000i)
 Traces of the OPDMs: Tr(AA) 2.000000, Tr(BB) 2.000000

        Solving for EOMEE-CCSD A triplet states.

Running a double precision version
        EOMEE-CCSD/MP2 right amplitudes will be solved using Davidson.
        Amplitudes will be solved using standard  algorithm.
     Hard-coded thresholds: 
     LinDepThresh=1.00e-15  NormThresh=1.00e-06  ReorthogonThresh=1.00e-02

      Roots     MaxVec    MaxIter   Precond   Conv      Shift    
      3         120       60        1         1.00e-05  0.00e+00  
 ------------------------------------------------------------------------------
      Iter ConvRoots NVecs ResNorm Current eigenvalues (eV)
 ------------------------------------------------------------------------------
      0    0      3     2.00e-02   4.6612   5.4789   5.4789   
      1    0      6     8.96e-03   3.6763   4.8253   4.8253   
      2    0      9     4.24e-04   3.5762   4.7226   4.7226   
      3    0      12    3.26e-05   3.5727   4.7208   4.7208   
      4    3      15    2.13e-07   3.5725*  4.7216*  4.7216*  

     Davidson procedure converged

 EOMEE transition 1/A
 Total energy = -7.72113603 a.u.  Excitation energy = 3.57253682 eV.
 R0^2 = 0.0000  R1^2 = 0.9562  R2^2 = 0.0438  Res^2 = 5.89e-08
 Conv-d = yes

 Amplitude    Transitions between orbitals
  0.6865585754       2 (A) A                   ->    3 (A) A                    
 -0.6865585754       2 (A) B                   ->    3 (A) B                    
 -0.0818250687       2 (A) A                   ->    6 (A) A                    
  0.0818250687       2 (A) B                   ->    6 (A) B                    
 -0.0042208208       1 (A) A                   ->    3 (A) A                    
  0.0042208208       1 (A) B                   ->    3 (A) B                    
 -0.0020102072       1 (A) A                   ->    6 (A) A                    
  0.0020102072       1 (A) B                   ->    6 (A) B                    
 -0.1478139516       2 (A) A       2 (A) B     ->    3 (A) A       6 (A) B      
  0.1478139516       2 (A) A       2 (A) B     ->    6 (A) A       3 (A) B      
  0.1478139516       2 (A) A       2 (A) B     ->    6 (A) B       3 (A) A      
 -0.1478139516       2 (A) A       2 (A) B     ->    3 (A) B       6 (A) A      
  0.1478139516       2 (A) B       2 (A) A     ->    3 (A) A       6 (A) B      
 -0.1478139516       2 (A) B       2 (A) A     ->    6 (A) A       3 (A) B      
  0.1478139516       2 (A) B       2 (A) A     ->    3 (A) B       6 (A) A      
 -0.1478139516       2 (A) B       2 (A) A     ->    6 (A) B       3 (A) A      
 -0.0053670133       1 (A) A       2 (A) B     ->    3 (A) A       3 (A) B      
  0.0053670133       2 (A) A       1 (A) B     ->    3 (A) A       3 (A) B      
  0.0053670133       1 (A) A       2 (A) B     ->    3 (A) B       3 (A) A      
 -0.0053670133       2 (A) A       1 (A) B     ->    3 (A) B       3 (A) A      
  0.0053670133       2 (A) B       1 (A) A     ->    3 (A) A       3 (A) B      
 -0.0053670133       1 (A) B       2 (A) A     ->    3 (A) A       3 (A) B      
  0.0053670133       1 (A) B       2 (A) A     ->    3 (A) B       3 (A) A      
 -0.0053670133       2 (A) B       1 (A) A     ->    3 (A) B       3 (A) A      
 -0.0033185526       1 (A) A       2 (A) B     ->    5 (A) A       5 (A) B      
  0.0033185526       2 (A) A       1 (A) B     ->    5 (A) A       5 (A) B      
  0.0033185526       1 (A) A       2 (A) B     ->    5 (A) B       5 (A) A      
 -0.0033185526       2 (A) A       1 (A) B     ->    5 (A) B       5 (A) A      
  0.0033185526       2 (A) B       1 (A) A     ->    5 (A) A       5 (A) B      
 -0.0033185526       1 (A) B       2 (A) A     ->    5 (A) A       5 (A) B      
  0.0033185526       1 (A) B       2 (A) A     ->    5 (A) B       5 (A) A      
 -0.0033185526       2 (A) B       1 (A) A     ->    5 (A) B       5 (A) A      
 -0.0033185526       1 (A) A       2 (A) B     ->    4 (A) A       4 (A) B      
  0.0033185526       2 (A) A       1 (A) B     ->    4 (A) A       4 (A) B      
  0.0033185526       1 (A) A       2 (A) B     ->    4 (A) B       4 (A) A      
 -0.0033185526       2 (A) A       1 (A) B     ->    4 (A) B       4 (A) A      
  0.0033185526       2 (A) B       1 (A) A     ->    4 (A) A       4 (A) B      
 -0.0033185526       1 (A) B       2 (A) A     ->    4 (A) A       4 (A) B      
  0.0033185526       1 (A) B       2 (A) A     ->    4 (A) B       4 (A) A      
 -0.0033185526       2 (A) B       1 (A) A     ->    4 (A) B       4 (A) A      
 -0.0027417647       1 (A) A       2 (A) A     ->    3 (A) A       6 (A) A      
  0.0027417647       1 (A) A       2 (A) A     ->    6 (A) A       3 (A) A      
  0.0027417647       2 (A) A       1 (A) A     ->    3 (A) A       6 (A) A      
 -0.0027417647       2 (A) A       1 (A) A     ->    6 (A) A       3 (A) A      
  0.0027417647       1 (A) B       2 (A) B     ->    3 (A) B       6 (A) B      
 -0.0027417647       1 (A) B       2 (A) B     ->    6 (A) B       3 (A) B      
 -0.0027417647       2 (A) B       1 (A) B     ->    3 (A) B       6 (A) B      
  0.0027417647       2 (A) B       1 (A) B     ->    6 (A) B       3 (A) B      
 -0.0024960049       1 (A) A       2 (A) B     ->    6 (A) A       3 (A) B      
  0.0024960049       2 (A) A       1 (A) B     ->    3 (A) A       6 (A) B      
  0.0024960049       1 (A) A       2 (A) B     ->    3 (A) B       6 (A) A      
 -0.0024960049       2 (A) A       1 (A) B     ->    6 (A) B       3 (A) A      
  0.0024960049       2 (A) B       1 (A) A     ->    6 (A) A       3 (A) B      
 -0.0024960049       1 (A) B       2 (A) A     ->    3 (A) A       6 (A) B      
  0.0024960049       1 (A) B       2 (A) A     ->    6 (A) B       3 (A) A      
 -0.0024960049       2 (A) B       1 (A) A     ->    3 (A) B       6 (A) A      
 -0.0024880915       1 (A) A       2 (A) B     ->    3 (A) A       6 (A) B      
  0.0024880915       2 (A) A       1 (A) B     ->    6 (A) A       3 (A) B      
  0.0024880915       1 (A) A       2 (A) B     ->    6 (A) B       3 (A) A      
 -0.0024880915       2 (A) A       1 (A) B     ->    3 (A) B       6 (A) A      
  0.0024880915       2 (A) B       1 (A) A     ->    3 (A) A       6 (A) B      
 -0.0024880915       1 (A) B       2 (A) A     ->    6 (A) A       3 (A) B      
  0.0024880915       1 (A) B       2 (A) A     ->    3 (A) B       6 (A) A      
 -0.0024880915       2 (A) B       1 (A) A     ->    6 (A) B       3 (A) A      
  0.0005750303       1 (A) A       1 (A) B     ->    3 (A) A       6 (A) B      
 -0.0005750303       1 (A) A       1 (A) B     ->    6 (A) A       3 (A) B      
 -0.0005750303       1 (A) A       1 (A) B     ->    6 (A) B       3 (A) A      
  0.0005750303       1 (A) A       1 (A) B     ->    3 (A) B       6 (A) A      
 -0.0005750303       1 (A) B       1 (A) A     ->    3 (A) A       6 (A) B      
  0.0005750303       1 (A) B       1 (A) A     ->    6 (A) A       3 (A) B      
 -0.0005750303       1 (A) B       1 (A) A     ->    3 (A) B       6 (A) A      
  0.0005750303       1 (A) B       1 (A) A     ->    6 (A) B       3 (A) A      
 -0.0002472762       1 (A) A       2 (A) B     ->    6 (A) A       6 (A) B      
  0.0002472762       2 (A) A       1 (A) B     ->    6 (A) A       6 (A) B      
  0.0002472762       1 (A) A       2 (A) B     ->    6 (A) B       6 (A) A      
 -0.0002472762       2 (A) A       1 (A) B     ->    6 (A) B       6 (A) A      
  0.0002472762       2 (A) B       1 (A) A     ->    6 (A) A       6 (A) B      
 -0.0002472762       1 (A) B       2 (A) A     ->    6 (A) A       6 (A) B      
  0.0002472762       1 (A) B       2 (A) A     ->    6 (A) B       6 (A) A      
 -0.0002472762       2 (A) B       1 (A) A     ->    6 (A) B       6 (A) A      

              Summary of significant orbitals:

               Number  Type             Irrep      Energy
               1       Occ  Alpha       1 (A)     -2.3499
               2       Occ  Alpha       2 (A)     -0.3130
               1       Occ  Beta        1 (A)     -2.3499
               2       Occ  Beta        2 (A)     -0.3130
               3       Vir  Alpha       3 (A)      0.0794
               4       Vir  Alpha       4 (A)      0.1615
               5       Vir  Alpha       5 (A)      0.1615
               6       Vir  Alpha       6 (A)      0.6219
               3       Vir  Beta        3 (A)      0.0794
               4       Vir  Beta        4 (A)      0.1615
               5       Vir  Beta        5 (A)      0.1615
               6       Vir  Beta        6 (A)      0.6219


 EOMEE transition 2/A
 Total energy = -7.67891055 a.u.  Excitation energy = 4.72155068 eV.
 R0^2 = 0.0000  R1^2 = 0.9484  R2^2 = 0.0516  Res^2 = 2.91e-07
 Conv-d = yes

 Amplitude    Transitions between orbitals
 -0.6886035449       2 (A) A                   ->    5 (A) A                    
  0.6886035449       2 (A) B                   ->    5 (A) B                    
  0.0014815298       1 (A) A                   ->    5 (A) A                    
 -0.0014815298       1 (A) B                   ->    5 (A) B                    
  0.1356971722       2 (A) A       2 (A) B     ->    5 (A) A       6 (A) B      
 -0.1356971722       2 (A) A       2 (A) B     ->    6 (A) A       5 (A) B      
 -0.1356971722       2 (A) A       2 (A) B     ->    6 (A) B       5 (A) A      
  0.1356971722       2 (A) A       2 (A) B     ->    5 (A) B       6 (A) A      
 -0.1356971722       2 (A) B       2 (A) A     ->    5 (A) A       6 (A) B      
  0.1356971722       2 (A) B       2 (A) A     ->    6 (A) A       5 (A) B      
 -0.1356971722       2 (A) B       2 (A) A     ->    5 (A) B       6 (A) A      
  0.1356971722       2 (A) B       2 (A) A     ->    6 (A) B       5 (A) A      
  0.0858097653       2 (A) A       2 (A) B     ->    3 (A) A       5 (A) B      
 -0.0858097653       2 (A) A       2 (A) B     ->    5 (A) A       3 (A) B      
 -0.0858097653       2 (A) A       2 (A) B     ->    5 (A) B       3 (A) A      
  0.0858097653       2 (A) A       2 (A) B     ->    3 (A) B       5 (A) A      
 -0.0858097653       2 (A) B       2 (A) A     ->    3 (A) A       5 (A) B      
  0.0858097653       2 (A) B       2 (A) A     ->    5 (A) A       3 (A) B      
 -0.0858097653       2 (A) B       2 (A) A     ->    3 (A) B       5 (A) A      
  0.0858097653       2 (A) B       2 (A) A     ->    5 (A) B       3 (A) A      
  0.0043024301       1 (A) A       2 (A) B     ->    3 (A) A       5 (A) B      
 -0.0043024301       2 (A) A       1 (A) B     ->    5 (A) A       3 (A) B      
 -0.0043024301       1 (A) A       2 (A) B     ->    5 (A) B       3 (A) A      
  0.0043024301       2 (A) A       1 (A) B     ->    3 (A) B       5 (A) A      
 -0.0043024301       2 (A) B       1 (A) A     ->    3 (A) A       5 (A) B      
  0.0043024301       1 (A) B       2 (A) A     ->    5 (A) A       3 (A) B      
 -0.0043024301       1 (A) B       2 (A) A     ->    3 (A) B       5 (A) A      
  0.0043024301       2 (A) B       1 (A) A     ->    5 (A) B       3 (A) A      
  0.0040581641       1 (A) A       2 (A) A     ->    5 (A) A       6 (A) A      
 -0.0040581641       1 (A) A       2 (A) A     ->    6 (A) A       5 (A) A      
 -0.0040581641       2 (A) A       1 (A) A     ->    5 (A) A       6 (A) A      
  0.0040581641       2 (A) A       1 (A) A     ->    6 (A) A       5 (A) A      
 -0.0040581641       1 (A) B       2 (A) B     ->    5 (A) B       6 (A) B      
  0.0040581641       1 (A) B       2 (A) B     ->    6 (A) B       5 (A) B      
  0.0040581641       2 (A) B       1 (A) B     ->    5 (A) B       6 (A) B      
 -0.0040581641       2 (A) B       1 (A) B     ->    6 (A) B       5 (A) B      
  0.0024601068       1 (A) A       2 (A) B     ->    5 (A) A       3 (A) B      
 -0.0024601068       2 (A) A       1 (A) B     ->    3 (A) A       5 (A) B      
 -0.0024601068       1 (A) A       2 (A) B     ->    3 (A) B       5 (A) A      
  0.0024601068       2 (A) A       1 (A) B     ->    5 (A) B       3 (A) A      
 -0.0024601068       2 (A) B       1 (A) A     ->    5 (A) A       3 (A) B      
  0.0024601068       1 (A) B       2 (A) A     ->    3 (A) A       5 (A) B      
 -0.0024601068       1 (A) B       2 (A) A     ->    5 (A) B       3 (A) A      
  0.0024601068       2 (A) B       1 (A) A     ->    3 (A) B       5 (A) A      
 -0.0020375469       1 (A) A       1 (A) B     ->    3 (A) A       5 (A) B      
  0.0020375469       1 (A) A       1 (A) B     ->    5 (A) A       3 (A) B      
  0.0020375469       1 (A) A       1 (A) B     ->    5 (A) B       3 (A) A      
 -0.0020375469       1 (A) A       1 (A) B     ->    3 (A) B       5 (A) A      
  0.0020375469       1 (A) B       1 (A) A     ->    3 (A) A       5 (A) B      
 -0.0020375469       1 (A) B       1 (A) A     ->    5 (A) A       3 (A) B      
  0.0020375469       1 (A) B       1 (A) A     ->    3 (A) B       5 (A) A      
 -0.0020375469       1 (A) B       1 (A) A     ->    5 (A) B       3 (A) A      
 -0.0006316627       1 (A) A       1 (A) B     ->    5 (A) A       6 (A) B      
  0.0006316627       1 (A) A       1 (A) B     ->    6 (A) A       5 (A) B      
  0.0006316627       1 (A) A       1 (A) B     ->    6 (A) B       5 (A) A      
 -0.0006316627       1 (A) A       1 (A) B     ->    5 (A) B       6 (A) A      
  0.0006316627       1 (A) B       1 (A) A     ->    5 (A) A       6 (A) B      
 -0.0006316627       1 (A) B       1 (A) A     ->    6 (A) A       5 (A) B      
  0.0006316627       1 (A) B       1 (A) A     ->    5 (A) B       6 (A) A      
 -0.0006316627       1 (A) B       1 (A) A     ->    6 (A) B       5 (A) A      
  0.0005386955       1 (A) A       2 (A) B     ->    5 (A) A       6 (A) B      
 -0.0005386955       2 (A) A       1 (A) B     ->    6 (A) A       5 (A) B      
 -0.0005386955       1 (A) A       2 (A) B     ->    6 (A) B       5 (A) A      
  0.0005386955       2 (A) A       1 (A) B     ->    5 (A) B       6 (A) A      
 -0.0005386955       2 (A) B       1 (A) A     ->    5 (A) A       6 (A) B      
  0.0005386955       1 (A) B       2 (A) A     ->    6 (A) A       5 (A) B      
 -0.0005386955       1 (A) B       2 (A) A     ->    5 (A) B       6 (A) A      
  0.0005386955       2 (A) B       1 (A) A     ->    6 (A) B       5 (A) A      
  0.0001817961       1 (A) A       2 (A) A     ->    3 (A) A       5 (A) A      
 -0.0001817961       1 (A) A       2 (A) A     ->    5 (A) A       3 (A) A      
 -0.0001817961       2 (A) A       1 (A) A     ->    3 (A) A       5 (A) A      
  0.0001817961       2 (A) A       1 (A) A     ->    5 (A) A       3 (A) A      
 -0.0001817961       1 (A) B       2 (A) B     ->    3 (A) B       5 (A) B      
  0.0001817961       1 (A) B       2 (A) B     ->    5 (A) B       3 (A) B      
  0.0001817961       2 (A) B       1 (A) B     ->    3 (A) B       5 (A) B      
 -0.0001817961       2 (A) B       1 (A) B     ->    5 (A) B       3 (A) B      
 -0.0001378981       1 (A) A       2 (A) B     ->    6 (A) A       5 (A) B      
  0.0001378981       2 (A) A       1 (A) B     ->    5 (A) A       6 (A) B      
  0.0001378981       1 (A) A       2 (A) B     ->    5 (A) B       6 (A) A      
 -0.0001378981       2 (A) A       1 (A) B     ->    6 (A) B       5 (A) A      
  0.0001378981       2 (A) B       1 (A) A     ->    6 (A) A       5 (A) B      
 -0.0001378981       1 (A) B       2 (A) A     ->    5 (A) A       6 (A) B      
  0.0001378981       1 (A) B       2 (A) A     ->    6 (A) B       5 (A) A      
 -0.0001378981       2 (A) B       1 (A) A     ->    5 (A) B       6 (A) A      

              Summary of significant orbitals:

               Number  Type             Irrep      Energy
               1       Occ  Alpha       1 (A)     -2.3499
               2       Occ  Alpha       2 (A)     -0.3130
               1       Occ  Beta        1 (A)     -2.3499
               2       Occ  Beta        2 (A)     -0.3130
               3       Vir  Alpha       3 (A)      0.0794
               5       Vir  Alpha       5 (A)      0.1615
               6       Vir  Alpha       6 (A)      0.6219
               3       Vir  Beta        3 (A)      0.0794
               5       Vir  Beta        5 (A)      0.1615
               6       Vir  Beta        6 (A)      0.6219


 EOMEE transition 3/A
 Total energy = -7.67891055 a.u.  Excitation energy = 4.72155069 eV.
 R0^2 = 0.0000  R1^2 = 0.9484  R2^2 = 0.0516  Res^2 = 2.91e-07
 Conv-d = yes

 Amplitude    Transitions between orbitals
  0.6886035449       2 (A) A                   ->    4 (A) A                    
 -0.6886035449       2 (A) B                   ->    4 (A) B                    
 -0.0014815298       1 (A) A                   ->    4 (A) A                    
  0.0014815298       1 (A) B                   ->    4 (A) B                    
 -0.1356971722       2 (A) A       2 (A) B     ->    4 (A) A       6 (A) B      
  0.1356971722       2 (A) A       2 (A) B     ->    6 (A) A       4 (A) B      
  0.1356971722       2 (A) A       2 (A) B     ->    6 (A) B       4 (A) A      
 -0.1356971722       2 (A) A       2 (A) B     ->    4 (A) B       6 (A) A      
  0.1356971722       2 (A) B       2 (A) A     ->    4 (A) A       6 (A) B      
 -0.1356971722       2 (A) B       2 (A) A     ->    6 (A) A       4 (A) B      
  0.1356971722       2 (A) B       2 (A) A     ->    4 (A) B       6 (A) A      
 -0.1356971722       2 (A) B       2 (A) A     ->    6 (A) B       4 (A) A      
 -0.0858097653       2 (A) A       2 (A) B     ->    3 (A) A       4 (A) B      
  0.0858097653       2 (A) A       2 (A) B     ->    4 (A) A       3 (A) B      
  0.0858097653       2 (A) A       2 (A) B     ->    4 (A) B       3 (A) A      
 -0.0858097653       2 (A) A       2 (A) B     ->    3 (A) B       4 (A) A      
  0.0858097653       2 (A) B       2 (A) A     ->    3 (A) A       4 (A) B      
 -0.0858097653       2 (A) B       2 (A) A     ->    4 (A) A       3 (A) B      
  0.0858097653       2 (A) B       2 (A) A     ->    3 (A) B       4 (A) A      
 -0.0858097653       2 (A) B       2 (A) A     ->    4 (A) B       3 (A) A      
 -0.0043024301       1 (A) A       2 (A) B     ->    3 (A) A       4 (A) B      
  0.0043024301       2 (A) A       1 (A) B     ->    4 (A) A       3 (A) B      
  0.0043024301       1 (A) A       2 (A) B     ->    4 (A) B       3 (A) A      
 -0.0043024301       2 (A) A       1 (A) B     ->    3 (A) B       4 (A) A      
  0.0043024301       2 (A) B       1 (A) A     ->    3 (A) A       4 (A) B      
 -0.0043024301       1 (A) B       2 (A) A     ->    4 (A) A       3 (A) B      
  0.0043024301       1 (A) B       2 (A) A     ->    3 (A) B       4 (A) A      
 -0.0043024301       2 (A) B       1 (A) A     ->    4 (A) B       3 (A) A      
 -0.0040581641       1 (A) A       2 (A) A     ->    4 (A) A       6 (A) A      
  0.0040581641       1 (A) A       2 (A) A     ->    6 (A) A       4 (A) A      
  0.0040581641       2 (A) A       1 (A) A     ->    4 (A) A       6 (A) A      
 -0.0040581641       2 (A) A       1 (A) A     ->    6 (A) A       4 (A) A      
  0.0040581641       1 (A) B       2 (A) B     ->    4 (A) B       6 (A) B      
 -0.0040581641       1 (A) B       2 (A) B     ->    6 (A) B       4 (A) B      
 -0.0040581641       2 (A) B       1 (A) B     ->    4 (A) B       6 (A) B      
  0.0040581641       2 (A) B       1 (A) B     ->    6 (A) B       4 (A) B      
 -0.0024601068       1 (A) A       2 (A) B     ->    4 (A) A       3 (A) B      
  0.0024601068       2 (A) A       1 (A) B     ->    3 (A) A       4 (A) B      
  0.0024601068       1 (A) A       2 (A) B     ->    3 (A) B       4 (A) A      
 -0.0024601068       2 (A) A       1 (A) B     ->    4 (A) B       3 (A) A      
  0.0024601068       2 (A) B       1 (A) A     ->    4 (A) A       3 (A) B      
 -0.0024601068       1 (A) B       2 (A) A     ->    3 (A) A       4 (A) B      
  0.0024601068       1 (A) B       2 (A) A     ->    4 (A) B       3 (A) A      
 -0.0024601068       2 (A) B       1 (A) A     ->    3 (A) B       4 (A) A      
  0.0020375469       1 (A) A       1 (A) B     ->    3 (A) A       4 (A) B      
 -0.0020375469       1 (A) A       1 (A) B     ->    4 (A) A       3 (A) B      
 -0.0020375469       1 (A) A       1 (A) B     ->    4 (A) B       3 (A) A      
  0.0020375469       1 (A) A       1 (A) B     ->    3 (A) B       4 (A) A      
 -0.0020375469       1 (A) B       1 (A) A     ->    3 (A) A       4 (A) B      
  0.0020375469       1 (A) B       1 (A) A     ->    4 (A) A       3 (A) B      
 -0.0020375469       1 (A) B       1 (A) A     ->    3 (A) B       4 (A) A      
  0.0020375469       1 (A) B       1 (A) A     ->    4 (A) B       3 (A) A      
  0.0006316627       1 (A) A       1 (A) B     ->    4 (A) A       6 (A) B      
 -0.0006316627       1 (A) A       1 (A) B     ->    6 (A) A       4 (A) B      
 -0.0006316627       1 (A) A       1 (A) B     ->    6 (A) B       4 (A) A      
  0.0006316627       1 (A) A       1 (A) B     ->    4 (A) B       6 (A) A      
 -0.0006316627       1 (A) B       1 (A) A     ->    4 (A) A       6 (A) B      
  0.0006316627       1 (A) B       1 (A) A     ->    6 (A) A       4 (A) B      
 -0.0006316627       1 (A) B       1 (A) A     ->    4 (A) B       6 (A) A      
  0.0006316627       1 (A) B       1 (A) A     ->    6 (A) B       4 (A) A      
 -0.0005386955       1 (A) A       2 (A) B     ->    4 (A) A       6 (A) B      
  0.0005386955       2 (A) A       1 (A) B     ->    6 (A) A       4 (A) B      
  0.0005386955       1 (A) A       2 (A) B     ->    6 (A) B       4 (A) A      
 -0.0005386955       2 (A) A       1 (A) B     ->    4 (A) B       6 (A) A      
  0.0005386955       2 (A) B       1 (A) A     ->    4 (A) A       6 (A) B      
 -0.0005386955       1 (A) B       2 (A) A     ->    6 (A) A       4 (A) B      
  0.0005386955       1 (A) B       2 (A) A     ->    4 (A) B       6 (A) A      
 -0.0005386955       2 (A) B       1 (A) A     ->    6 (A) B       4 (A) A      
 -0.0001817961       1 (A) A       2 (A) A     ->    3 (A) A       4 (A) A      
  0.0001817961       1 (A) A       2 (A) A     ->    4 (A) A       3 (A) A      
  0.0001817961       2 (A) A       1 (A) A     ->    3 (A) A       4 (A) A      
 -0.0001817961       2 (A) A       1 (A) A     ->    4 (A) A       3 (A) A      
  0.0001817961       1 (A) B       2 (A) B     ->    3 (A) B       4 (A) B      
 -0.0001817961       1 (A) B       2 (A) B     ->    4 (A) B       3 (A) B      
 -0.0001817961       2 (A) B       1 (A) B     ->    3 (A) B       4 (A) B      
  0.0001817961       2 (A) B       1 (A) B     ->    4 (A) B       3 (A) B      
  0.0001378981       1 (A) A       2 (A) B     ->    6 (A) A       4 (A) B      
 -0.0001378981       2 (A) A       1 (A) B     ->    4 (A) A       6 (A) B      
 -0.0001378981       1 (A) A       2 (A) B     ->    4 (A) B       6 (A) A      
  0.0001378981       2 (A) A       1 (A) B     ->    6 (A) B       4 (A) A      
 -0.0001378981       2 (A) B       1 (A) A     ->    6 (A) A       4 (A) B      
  0.0001378981       1 (A) B       2 (A) A     ->    4 (A) A       6 (A) B      
 -0.0001378981       1 (A) B       2 (A) A     ->    6 (A) B       4 (A) A      
  0.0001378981       2 (A) B       1 (A) A     ->    4 (A) B       6 (A) A      

              Summary of significant orbitals:

               Number  Type             Irrep      Energy
               1       Occ  Alpha       1 (A)     -2.3499
               2       Occ  Alpha       2 (A)     -0.3130
               1       Occ  Beta        1 (A)     -2.3499
               2       Occ  Beta        2 (A)     -0.3130
               3       Vir  Alpha       3 (A)      0.0794
               4       Vir  Alpha       4 (A)      0.1615
               6       Vir  Alpha       6 (A)      0.6219
               3       Vir  Beta        3 (A)      0.0794
               4       Vir  Beta        4 (A)      0.1615
               6       Vir  Beta        6 (A)      0.6219


 EEs and amplitudes of EOMEE has be exported to fchk file
Running a double precision version
      EOM-CCSD/MP2 left amplitudes will be solved using Davidson.
        Amplitudes will be solved using MOM  algorithm.
     Hard-coded thresholds: 
     LinDepThresh=1.00e-15  NormThresh=1.00e-06  ReorthogonThresh=1.00e-02

      Roots     MaxVec    MaxIter   Precond   Conv      Shift    
      3         120       60        1         1.00e-05  0.00e+00  
 ------------------------------------------------------------------------------
      Iter ConvRoots NVecs ResNorm Current eigenvalues (eV)
 ------------------------------------------------------------------------------
      0    0      3     1.43e-04   3.5725   4.7216   4.7216   
      1    0      6     1.08e-04   3.5725   4.7216   4.7216   
      2    3      9     5.92e-06   3.5725*  4.7216*  4.7216*  

     Davidson procedure converged

biorthogonolize_left_to_right(): degenerate block detected, ndeg=2

 Excited state properties for  EOMEE-CCSD transition 1/A
 Dipole moment (a.u.): 1.521956 (X 0.000000, Y 0.000000, Z 1.521956)
 R-squared (a.u.): 21.234456 (XX 4.924137, YY 4.924137, ZZ 11.386183)
 Gauge origin (a.u.): (0.000000, 0.000000, 0.000000)
 Angular momentum (a.u.) against gauge origin: 
 (X 0.000000i, Y 0.000000i, Z 0.000000i)
 Traces of the OPDMs: Tr(AA) 2.000000, Tr(BB) 2.000000

 Excited state properties for  EOMEE-CCSD transition 2/A
 Dipole moment (a.u.): 0.043196 (X 0.000000, Y 0.000000, Z 0.043196)
 R-squared (a.u.): 19.242734 (XX 5.992271, YY 5.992271, ZZ 7.258192)
 Gauge origin (a.u.): (0.000000, 0.000000, 0.000000)
 Angular momentum (a.u.) against gauge origin: 
 (X 0.000000i, Y 0.000000i, Z 0.000000i)
 Traces of the OPDMs: Tr(AA) 2.000000, Tr(BB) 2.000000

 Excited state properties for  EOMEE-CCSD transition 3/A
 Dipole moment (a.u.): 0.043196 (X 0.000000, Y 0.000000, Z 0.043196)
 R-squared (a.u.): 19.242734 (XX 5.992271, YY 5.992271, ZZ 7.258192)
 Gauge origin (a.u.): (0.000000, 0.000000, 0.000000)
 Angular momentum (a.u.) against gauge origin: 
 (X 0.000000i, Y 0.000000i, Z 0.000000i)
 Traces of the OPDMs: Tr(AA) 2.000000, Tr(BB) 2.000000

 EOMEE-CCSD calculation:   CPU 2.40 s  wall 1.78 s

 Total ccman2 time:   CPU 3.33 s  wall 2.37 s


 --------------------------------------------------------------

                    Orbital Energies (a.u.)
 --------------------------------------------------------------

 Alpha MOs
 -- Occupied --
 -2.3499  -0.3130
 -- Virtual --
  0.0794   0.1615   0.1615   0.6219
 --------------------------------------------------------------

          Ground-State Mulliken Net Atomic Charges

     Atom                 Charge (a.u.)
  ----------------------------------------
      1 Li                   -0.011335
      2 H                     0.011335
  ----------------------------------------
  Sum of atomic charges =     0.000000

 -----------------------------------------------------------------
                    Cartesian Multipole Moments
 -----------------------------------------------------------------
    Charge (ESU x 10^10)
                 0.0000
    Dipole Moment (Debye)
         X      -0.0000      Y      -0.0000      Z      -4.6768
       Tot       4.6768
    Quadrupole Moments (Debye-Ang)
        XX      -5.2385     XY      -0.0000     YY      -5.2385
        XZ      -0.0000     YZ       0.0000     ZZ      -5.6532
    Octopole Moments (Debye-Ang^2)
       XXX      -0.0000    XXY       0.0000    XYY      -0.0000
       YYY       0.0000    XXZ      -3.2521    XYZ       0.0000
       YYZ      -3.2521    XZZ      -0.0000    YZZ       0.0000
       ZZZ      -9.4414
    Hexadecapole Moments (Debye-Ang^3)
      XXXX     -12.3980   XXXY      -0.0000   XXYY      -4.1327
      XYYY      -0.0000   YYYY     -12.3980   XXXZ      -0.0000
      XXYZ       0.0000   XYYZ      -0.0000   YYYZ       0.0000
      XXZZ      -5.4349   XYZZ      -0.0000   YYZZ      -5.4349
      XZZZ      -0.0000   YZZZ       0.0000   ZZZZ     -20.7150
 -----------------------------------------------------------------
 Total job time:  3.87s(wall), 5.62s(cpu) 
 Thu Aug 11 11:26:39 2022

        *************************************************************
        *                                                           *
        *  Thank you very much for using Q-Chem.  Have a nice day.  *
        *                                                           *
        *************************************************************


