Jobname.Temp
SP        R                             STO-3G              
Number of atoms                            I                2
Charge                                     I                0
Multiplicity                               I                1
Number of electrons                        I                4
Number of alpha electrons                  I                2
Number of beta electrons                   I                2
Atomic numbers                             I   N=           2
           3           1
Current cartesian coordinates              R   N=           6
  0.00000000E+00  0.00000000E+00 -5.66917837E-01  0.00000000E+00  0.00000000E+00
  1.70075351E+00
Nuclear charges                            R   N=           2
  3.00000000E+00  1.00000000E+00
Number of basis functions                  I                6
Number of contracted shells                I                3
Number of primitive shells                 I                9
Highest angular momentum                   I                1
Largest degree of contraction              I                3
Shell types                                I   N=           3
           0          -1           0
Number of primitives per shell             I   N=           3
           3           3           3
Shell to atom map                          I   N=           3
           1           1           2
Primitive exponents                        R   N=           9
  1.61195750E+01  2.93620070E+00  7.94650500E-01  6.36289700E-01  1.47860100E-01
  4.80887000E-02  3.42525091E+00  6.23913730E-01  1.68855400E-01
Contraction coefficients                   R   N=           9
  1.54328970E-01  5.35328141E-01  4.44634541E-01 -9.99672298E-02  3.99512829E-01
  7.00115469E-01  1.54328971E-01  5.35328142E-01  4.44634542E-01
P(S=P) Contraction coefficients            R   N=           9
  0.00000000E+00  0.00000000E+00  0.00000000E+00  1.55916265E-01  6.07683701E-01
  3.91957378E-01  0.00000000E+00  0.00000000E+00  0.00000000E+00
Coordinates of each shell                  R   N=           9
  0.00000000E+00  0.00000000E+00 -5.66917837E-01  0.00000000E+00  0.00000000E+00
 -5.66917837E-01  0.00000000E+00  0.00000000E+00  1.70075351E+00
Overlap Matrix                             R   N=          21
  1.00000000E+00  2.41136651E-01  1.00000000E+00  0.00000000E+00  0.00000000E+00
  1.00000000E+00  0.00000000E+00  0.00000000E+00  0.00000000E+00  1.00000000E+00
  7.86390057E-18 -3.10473531E-17  0.00000000E+00  0.00000000E+00  1.00000000E+00
  1.53807607E-01  4.92920348E-01  0.00000000E+00  0.00000000E+00  5.57609659E-01
  1.00000000E+00
Core Hamiltonian Matrix                    R   N=          21
 -4.84707136E+00 -1.09068926E+00 -1.44048530E+00  0.00000000E+00  0.00000000E+00
 -1.17619180E+00  0.00000000E+00  0.00000000E+00  0.00000000E+00 -1.17619180E+00
 -2.82384929E-02 -1.39160954E-01  0.00000000E+00  0.00000000E+00 -1.28581134E+00
 -7.19055878E-01 -9.69318072E-01  0.00000000E+00  0.00000000E+00 -1.00982903E+00
 -1.77107772E+00
Orbital Coefficients CCMAN2 Alpha          R   N=          36
  9.89476855E-01  2.67599470E-02  1.25676881E-17  3.81720993E-16 -1.17765567E-02
  2.15548073E-02 -2.11757489E-01  4.12913626E-01  1.18426389E-17 -4.80949842E-16
  3.61989002E-01  5.40852302E-01  2.01971889E-01 -8.15511455E-01  5.89478549E-16
 -5.30923568E-17  6.04816341E-01  1.28082230E-01  2.53994928E-16 -9.48701471E-16
 -1.00000000E+00  3.70488452E-16  6.93647205E-16  1.16668608E-16 -9.23652201E-17
  2.26869219E-16 -8.36595728E-16 -1.00000000E+00  1.07234937E-16 -5.28651626E-16
  1.15510617E-02  8.67211201E-01 -2.11520637E-17  1.16103997E-16  1.09637841E+00
 -1.39240389E+00
Orbital Coefficients CCMAN2 Beta           R   N=          36
 -2.11757489E-01  4.12913626E-01  1.18426389E-17 -4.80949842E-16  3.61989002E-01
  5.40852302E-01  2.01971889E-01 -8.15511455E-01  5.89478549E-16 -5.30923568E-17
  6.04816341E-01  1.28082230E-01  2.53994928E-16 -9.48701471E-16 -1.00000000E+00
  3.70488452E-16  6.93647205E-16  1.16668608E-16 -9.23652201E-17  2.26869219E-16
 -8.36595728E-16 -1.00000000E+00  1.07234937E-16 -5.28651626E-16  1.15510617E-02
  8.67211201E-01 -2.11520637E-17  1.16103997E-16  1.09637841E+00 -1.39240389E+00
  9.89476855E-01  2.67599470E-02  1.25676881E-17  3.81720993E-16 -1.17765567E-02
  2.15548073E-02
EOMEE transition A Excitation Energies     R   N=           3
  1.45935135E-01  2.01561176E-01  2.01561177E-01
Number of Active Occ                       I                4
Number of Active Vir                       I                8
Alpha Amplitudes                           R   N=           6
  6.74808833E-01  6.74808833E-01 -6.74987618E-01 -6.74987618E-01  6.74987618E-01
  6.74987618E-01
Alpha J Indexes                            I   N=           4
           0           2           4           6
Alpha I Indexes                            I   N=           6
           8          28          10          30           9          29
EOMEE transition A Excitation Energies     R   N=           3
  1.31288318E-01  1.73513802E-01  1.73513802E-01
Number of Active Occ                       I                4
Number of Active Vir                       I                8
Alpha Amplitudes                           R   N=           6
  6.86558575E-01 -6.86558575E-01 -6.88603545E-01  6.88603545E-01  6.88603545E-01
 -6.88603545E-01
Alpha J Indexes                            I   N=           4
           0           2           4           6
Alpha I Indexes                            I   N=           6
           8          28          10          30           9          29
Number of independent functions            I                6
Alpha MO coefficients                      R   N=          36
  9.89476855E-01  2.67599470E-02  1.25676881E-17  3.81720993E-16 -1.17765567E-02
  2.15548073E-02 -2.11757489E-01  4.12913626E-01  1.18426389E-17 -4.80949842E-16
  3.61989002E-01  5.40852302E-01  2.01971889E-01 -8.15511455E-01  5.89478549E-16
 -5.30923568E-17  6.04816341E-01  1.28082230E-01  2.53994928E-16 -9.48701471E-16
 -1.00000000E+00  3.70488452E-16  6.93647205E-16  1.16668608E-16 -9.23652201E-17
  2.26869219E-16 -8.36595728E-16 -1.00000000E+00  1.07234937E-16 -5.28651626E-16
  1.15510617E-02  8.67211201E-01 -2.11520637E-17  1.16103997E-16  1.09637841E+00
 -1.39240389E+00
Alpha Orbital Energies                     R   N=           6
 -2.34994055E+00 -3.12994501E-01  7.94270631E-02  1.61455830E-01  1.61455830E-01
  6.21871570E-01
Total SCF Density                          R   N=          21
  2.05175954E+00 -1.35283635E-01  4.10912760E-01 -4.50222789E-17  9.51842984E-17
  2.12890783E-03  1.08156749E-15 -4.19251971E-17  3.53620773E-18  2.12890784E-03
 -1.70623483E-01  3.14240751E-01  7.06259704E-17 -6.72187955E-17  2.43243255E-01
 -1.87954526E-01  4.22606623E-01  8.47891782E-17 -6.35877580E-17  3.35365813E-01
  6.22258745E-01
Pure Switching                             I                1
Dipole_Data                                R   N=           3
 -1.03152595E-15 -2.80725951E-16 -4.67679196E+00
Quadrupole_Data                            R   N=           6
 -5.23845302E+00 -2.23550176E-17 -5.23845302E+00 -2.82994618E-16  6.18630594E-16
 -5.65322514E+00
Octapole_Data                              R   N=          10
 -2.62428108E-15  3.16591141E-16 -8.74760359E-16  9.49773423E-16 -3.25209063E+00
  6.70650527E-18 -3.25209063E+00 -7.30834294E-16  5.97033746E-17 -9.44140072E+00
Hexadecapole_Data                          R   N=          15
 -1.23980176E+01 -5.91124318E-17 -4.13267252E+00 -5.91124318E-17 -1.23980176E+01
 -5.81222917E-16  3.26545208E-16 -1.93740972E-16  9.79635624E-16 -5.43489555E+00
 -2.17160955E-17 -5.43489555E+00 -7.08086357E-16  1.12757131E-15 -2.07150115E+01
