Jobname.Temp
SP        R                             STO-3G              
Number of atoms                            I                2
Charge                                     I                0
Multiplicity                               I                1
Number of electrons                        I                4
Number of alpha electrons                  I                2
Number of beta electrons                   I                2
Atomic numbers                             I   N=           2
           3           1
Current cartesian coordinates              R   N=           6
  0.00000000E+00  0.00000000E+00 -6.61404144E-01  0.00000000E+00  0.00000000E+00
  1.98421243E+00
Nuclear charges                            R   N=           2
  3.00000000E+00  1.00000000E+00
Number of basis functions                  I                6
Number of contracted shells                I                3
Number of primitive shells                 I                9
Highest angular momentum                   I                1
Largest degree of contraction              I                3
Shell types                                I   N=           3
           0          -1           0
Number of primitives per shell             I   N=           3
           3           3           3
Shell to atom map                          I   N=           3
           1           1           2
Primitive exponents                        R   N=           9
  1.61195750E+01  2.93620070E+00  7.94650500E-01  6.36289700E-01  1.47860100E-01
  4.80887000E-02  3.42525091E+00  6.23913730E-01  1.68855400E-01
Contraction coefficients                   R   N=           9
  1.54328970E-01  5.35328141E-01  4.44634541E-01 -9.99672298E-02  3.99512829E-01
  7.00115469E-01  1.54328971E-01  5.35328142E-01  4.44634542E-01
P(S=P) Contraction coefficients            R   N=           9
  0.00000000E+00  0.00000000E+00  0.00000000E+00  1.55916265E-01  6.07683701E-01
  3.91957378E-01  0.00000000E+00  0.00000000E+00  0.00000000E+00
Coordinates of each shell                  R   N=           9
  0.00000000E+00  0.00000000E+00 -6.61404144E-01  0.00000000E+00  0.00000000E+00
 -6.61404144E-01  0.00000000E+00  0.00000000E+00  1.98421243E+00
Overlap Matrix                             R   N=          21
  1.00000000E+00  2.41136651E-01  1.00000000E+00  0.00000000E+00  0.00000000E+00
  1.00000000E+00  0.00000000E+00  0.00000000E+00  0.00000000E+00  1.00000000E+00
 -1.00729723E-18  4.04520993E-18  0.00000000E+00  0.00000000E+00  1.00000000E+00
  1.01559538E-01  4.45083706E-01  0.00000000E+00  0.00000000E+00  5.43865573E-01
  1.00000000E+00
Core Hamiltonian Matrix                    R   N=          21
 -4.78407850E+00 -1.07569264E+00 -1.41821941E+00  0.00000000E+00  0.00000000E+00
 -1.15527610E+00  0.00000000E+00  0.00000000E+00  0.00000000E+00 -1.15527610E+00
 -2.09775197E-02 -1.32246180E-01  0.00000000E+00  0.00000000E+00 -1.26122042E+00
 -4.66847982E-01 -8.24734746E-01  0.00000000E+00  0.00000000E+00 -9.33683729E-01
 -1.59352304E+00
Orbital Coefficients CCMAN2 Alpha          R   N=          36
 -9.90851797E-01 -3.08688689E-02 -1.06282172E-16  5.78983187E-17  8.36703801E-03
 -1.05927617E-02 -1.84020365E-01  4.36043412E-01 -7.09440889E-17  1.36602416E-16
  3.53144096E-01  5.40850467E-01  2.06987574E-01 -8.04497401E-01  2.57921160E-16
  6.96114658E-17  6.12031551E-01  1.29418338E-01  9.66648556E-17 -3.18415683E-16
 -1.00000000E+00  1.05578269E-16  2.18578909E-16  3.45802638E-17  1.49748611E-16
 -3.82946129E-17  2.52056677E-16  1.00000000E+00 -5.90854426E-17 -1.02953304E-16
 -5.75857229E-02  7.85797471E-01  8.04837706E-18 -9.36120831E-18  1.04168817E+00
 -1.29097230E+00
Orbital Coefficients CCMAN2 Beta           R   N=          36
 -1.84020365E-01  4.36043412E-01 -7.09440889E-17  1.36602416E-16  3.53144096E-01
  5.40850467E-01  2.06987574E-01 -8.04497401E-01  2.57921160E-16  6.96114658E-17
  6.12031551E-01  1.29418338E-01  9.66648556E-17 -3.18415683E-16 -1.00000000E+00
  1.05578269E-16  2.18578909E-16  3.45802638E-17  1.49748611E-16 -3.82946129E-17
  2.52056677E-16  1.00000000E+00 -5.90854426E-17 -1.02953304E-16 -5.75857229E-02
  7.85797471E-01  8.04837706E-18 -9.36120831E-18  1.04168817E+00 -1.29097230E+00
 -9.90851797E-01 -3.08688689E-02 -1.06282172E-16  5.78983187E-17  8.36703801E-03
 -1.05927617E-02
EOMEE transition A Excitation Energies     R   N=           3
  1.42273786E-01  1.96088590E-01  1.96088590E-01
Number of Active Occ                       I                4
Number of Active Vir                       I                8
Alpha Amplitudes                           R   N=           6
 -6.70731589E-01 -6.70731589E-01  6.71355686E-01  6.71355686E-01  6.71355686E-01
  6.71355686E-01
Alpha J Indexes                            I   N=           4
           0           2           4           6
Alpha I Indexes                            I   N=           6
           8          28          10          30           9          29
EOMEE transition A Excitation Energies     R   N=           3
  1.26676272E-01  1.72352893E-01  1.72352893E-01
Number of Active Occ                       I                4
Number of Active Vir                       I                8
Alpha Amplitudes                           R   N=           6
  6.84690421E-01 -6.84690421E-01  6.85631317E-01 -6.85631317E-01 -6.85631317E-01
  6.85631317E-01
Alpha J Indexes                            I   N=           4
           0           2           4           6
Alpha I Indexes                            I   N=           6
           8          28          10          30           9          29
Number of independent functions            I                6
Alpha MO coefficients                      R   N=          36
 -9.90851797E-01 -3.08688689E-02 -1.06282172E-16  5.78983187E-17  8.36703801E-03
 -1.05927617E-02 -1.84020365E-01  4.36043412E-01 -7.09440889E-17  1.36602416E-16
  3.53144096E-01  5.40850467E-01  2.06987574E-01 -8.04497401E-01  2.57921160E-16
  6.96114658E-17  6.12031551E-01  1.29418338E-01  9.66648556E-17 -3.18415683E-16
 -1.00000000E+00  1.05578269E-16  2.18578909E-16  3.45802638E-17  1.49748611E-16
 -3.82946129E-17  2.52056677E-16  1.00000000E+00 -5.90854426E-17 -1.02953304E-16
 -5.75857229E-02  7.85797471E-01  8.04837706E-18 -9.36120831E-18  1.04168817E+00
 -1.29097230E+00
Alpha Orbital Energies                     R   N=           6
 -2.34597365E+00 -3.01198864E-01  7.94995150E-02  1.63275018E-01  1.63275018E-01
  5.96917481E-01
Total SCF Density                          R   N=          21
  2.03534575E+00 -1.14786893E-01  4.53533696E-01  2.24996282E-16 -4.18899633E-17
  1.78595837E-03  1.79526299E-16 -1.87011991E-17  8.98579868E-19  1.78595838E-03
 -1.42049653E-01  3.18496287E-01 -3.65348902E-17 -1.82725618E-17  2.25961093E-01
 -1.77557598E-01  4.46966041E-01 -5.71326483E-17 -2.29239505E-17  3.23664935E-01
  6.23076500E-01
Pure Switching                             I                1
Dipole_Data                                R   N=           3
  3.27560422E-16  8.19840205E-17 -4.64648650E+00
Quadrupole_Data                            R   N=           6
 -5.37105510E+00 -5.68059636E-18 -5.37105510E+00  2.16117646E-16  1.26863730E-16
 -5.22017466E+00
Octapole_Data                              R   N=          10
  1.13833538E-15  1.60225096E-16  3.79445126E-16  4.80675288E-16 -3.21194385E+00
  1.98820872E-18 -3.21194385E+00  2.83241460E-16  9.95775094E-17 -9.35838762E+00
Hexadecapole_Data                          R   N=          15
 -1.29998114E+01 -1.50209618E-17 -4.33327047E+00 -1.50209618E-17 -1.29998114E+01
  3.43827482E-16  6.33277533E-17  1.14609161E-16  1.89983260E-16 -5.70317190E+00
 -5.70286031E-18 -5.70317190E+00  4.46795690E-16  2.41812840E-16 -2.14547843E+01
