                  Welcome to Q-Chem
     A Quantum Leap Into The Future Of Chemistry


 Q-Chem 5.4 (devel), Q-Chem, Inc., Pleasanton, CA (2021)

 E. Epifanovsky,  A. T. B. Gilbert,  Xintian Feng,  Joonho Lee,  Yuezhi Mao,  
 N. Mardirossian,  P. Pokhilko,  A. White,  M. Wormit,  M. P. Coons,  
 A. L. Dempwolff,  Zhengting Gan,  D. Hait,  P. R. Horn,  L. D. Jacobson,  
 I. Kaliman,  J. Kussmann,  A. W. Lange,  Ka Un Lao,  D. S. Levine,  Jie Liu,  
 S. C. McKenzie,  A. F. Morrison,  K. Nanda,  F. Plasser,  D. R. Rehn,  
 M. L. Vidal,  Zhi-Qiang You,  Ying Zhu,  B. Alam,  B. Albrecht,  
 A. Aldossary,  E. Alguire,  J. H. Andersen,  D. Barton,  K. Begam,  A. Behn,  
 Y. A. Bernard,  E. J. Berquist,  H. Burton,  A. Carreras,  K. Carter-Fenk,  
 R. Chakraborty,  A. D. Chien,  K. D. Closser,  V. Cofer-Shabica,  
 S. Dasgupta,  Jia Deng,  M. de Wergifosse,  M. Diedenhofen,  Hainam Do,  
 S. Ehlert,  Po-Tung Fang,  S. Fatehi,  Qingguo Feng,  T. Friedhoff,  
 J. Gayvert,  Qinghui Ge,  G. Gidofalvi,  M. Goldey,  J. Gomes,  
 C. Gonzalez-Espinoza,  S. Gulania,  A. Gunina,  M. W. D. Hanson-Heine,  
 P. H. P. Harbach,  A. W. Hauser,  M. F. Herbst,  M. Hernandez Vera,  
 M. Hodecker,  Z. C. Holden,  S. Houck,  Xunkun Huang,  Kerwin Hui,  
 B. C. Huynh,  M. Ivanov,  Hyunjun Ji,  Hanjie Jiang,  B. Kaduk,  S. Kaehler,  
 K. Khistyaev,  Jaehoon Kim,  P. Klunzinger,  Z. Koczor-Benda,  
 Joong Hoon Koh,  D. Kosenkov,  L. Koulias,  T. Kowalczyk,  C. M. Krauter,  
 K. Kue,  A. Kunitsa,  T. Kus,  A. Landau,  K. V. Lawler,  D. Lefrancois,  
 S. Lehtola,  Rain Li,  Yi-Pei Li,  Jiashu Liang,  M. Liebenthal,  
 Hung-Hsuan Lin,  You-Sheng Lin,  Fenglai Liu,  Kuan-Yu Liu,  
 M. Loipersberger,  A. Luenser,  A. Manjanath,  P. Manohar,  E. Mansoor,  
 S. F. Manzer,  Shan-Ping Mao,  A. V. Marenich,  T. Markovich,  S. Mason,  
 S. A. Maurer,  P. F. McLaughlin,  M. F. S. J. Menger,  J.-M. Mewes,  
 S. A. Mewes,  P. Morgante,  J. W. Mullinax,  K. J. Oosterbaan,  G. Paran,  
 Alexander C. Paul,  Suranjan K. Paul,  F. Pavosevic,  Zheng Pei,  S. Prager,  
 E. I. Proynov,  E. Ramos,  B. Rana,  A. E. Rask,  A. Rettig,  R. M. Richard,  
 F. Rob,  E. Rossomme,  T. Scheele,  M. Scheurer,  M. Schneider,  
 N. Sergueev,  S. M. Sharada,  W. Skomorowski,  D. W. Small,  C. J. Stein,  
 Yu-Chuan Su,  E. J. Sundstrom,  Zhen Tao,  J. Thirman,  T. Tsuchimochi,  
 N. M. Tubman,  S. P. Veccham,  O. Vydrov,  J. Wenzel,  J. Witte,  A. Yamada,  
 Kun Yao,  S. Yeganeh,  S. R. Yost,  A. Zech,  Igor Ying Zhang,  Xing Zhang,  
 Yu Zhang,  D. Zuev,  A. Aspuru-Guzik,  A. T. Bell,  N. A. Besley,  
 K. B. Bravaya,  B. R. Brooks,  D. Casanova,  Jeng-Da Chai,  S. Coriani,  
 C. J. Cramer,  A. E. DePrince, III,  R. A. DiStasio Jr.,  A. Dreuw,  
 B. D. Dunietz,  T. R. Furlani,  W. A. Goddard III,  S. Grimme,  
 S. Hammes-Schiffer,  T. Head-Gordon,  W. J. Hehre,  Chao-Ping Hsu,  
 T.-C. Jagau,  Yousung Jung,  A. Klamt,  Jing Kong,  D. S. Lambrecht,  
 WanZhen Liang,  N. J. Mayhall,  C. W. McCurdy,  J. B. Neaton,  
 C. Ochsenfeld,  J. A. Parkhill,  R. Peverati,  V. A. Rassolov,  Yihan Shao,  
 L. V. Slipchenko,  T. Stauch,  R. P. Steele,  J. E. Subotnik,  
 A. J. W. Thom,  A. Tkatchenko,  D. G. Truhlar,  T. Van Voorhis,  
 T. A. Wesolowski,  K. B. Whaley,  H. L. Woodcock III,  P. M. Zimmerman,  
 S. Faraji,  P. M. W. Gill,  M. Head-Gordon,  J. M. Herbert,  A. I. Krylov

 Additional authors for Version 5.4.1: 
 S. Kotaru,  Shaozhi Li,  Xiangyuan Li,  F. Matz,  A. Molle,  Haisheng Ren,  
 Yingli Su,  Hung-Yi Tsai,  C. Utku,  Fang Wang

 Contributors to earlier versions of Q-Chem not listed above: 
 R. D. Adamson,  B. Austin,  R. Baer,  J. Baker,  G. J. O. Beran,  
 K. Brandhorst,  S. T. Brown,  E. F. C. Byrd,  A. K. Chakraborty,  
 G. K. L. Chan,  Chun-Min Chang,  Yunqing Chen,  C.-L. Cheng,  
 Siu Hung Chien,  D. M. Chipman,  D. L. Crittenden,  H. Dachsel,  
 R. J. Doerksen,  A. D. Dutoi,  R. G. Edgar,  J. Fosso-Tande,  
 L. Fusti-Molnar,  D. Ghosh,  A. Ghysels,  A. Golubeva-Zadorozhnaya,  
 J. Gonthier,  M. S. Gordon,  S. R. Gwaltney,  G. Hawkins,  J. E. Herr,  
 A. Heyden,  S. Hirata,  E. G. Hohenstein,  G. Kedziora,  F. J. Keil,  
 C. Kelley,  Jihan Kim,  R. A. King,  R. Z. Khaliullin,  P. P. Korambath,  
 W. Kurlancheek,  A. Laurent,  A. M. Lee,  M. S. Lee,  S. V. Levchenko,  
 Ching Yeh Lin,  D. Liotard,  E. Livshits,  R. C. Lochan,  I. Lotan,  
 L. A. Martinez-Martinez,  P. E. Maslen,  N. Nair,  D. P. O'Neill,  
 D. Neuhauser,  E. Neuscamman,  C. M. Oana,  R. Olivares-Amaya,  R. Olson,  
 T. M. Perrine,  B. Peters,  P. A. Pieniazek,  A. Prociuk,  Y. M. Rhee,  
 J. Ritchie,  M. A. Rohrdanz,  E. Rosta,  N. J. Russ,  H. F. Schaefer III,  
 M. W. Schmidt,  N. E. Schultz,  S. Sharma,  N. Shenvi,  C. D. Sherrill,  
 A. C. Simmonett,  A. Sodt,  T. Stein,  D. Stuck,  K. S. Thanthiriwatte,  
 V. Vanovschi,  L. Vogt,  Tao Wang,  A. Warshel,  M. A. Watson,  
 C. F. Williams,  Q. Wu,  X. Xu,  Jun Yang,  W. Zhang,  Yan Zhao

 Please cite Q-Chem as follows:
 Y. Shao et al., Mol. Phys. 113, 184-215 (2015)
 DOI: 10.1080/00268976.2014.952696

 Q-Chem 5.4.1 for Intel X86 EM64T Linux

 Parts of Q-Chem use Armadillo 9.900.5 (Nocturnal Misbehaviour).
 http://arma.sourceforge.net/

 Q-Chem begins on Sun Sep  4 11:40:08 2022  

orc43
 Host: 0

     Scratch files written to /scratch/yongbin/qchem1464//
 Processing $rem in /home/users/yongbin/software/yongbin_quantum/config/preferences:
 Processing $rem in /home/users/yongbin/.qchemrc:

 Checking the input file for inconsistencies... 	...done.

--------------------------------------------------------------
User input:
--------------------------------------------------------------
$comment
Water molecule
$end

$molecule
0 1
O
H O 0.6
H O 0.6 H 104.5
$end

$rem
   n_frozen_core = 0
   print_qis = true
   BASIS                = sto-3g
!   SYMMETRY             = true
!   CC_SYMMETRY          = false
   METHOD               = eom-ccsd
   EE_SINGLETS          = [1,1,1,1] ! Compute two EOM-EE singlet excited states
   EE_TRIPLETS          = [1,1,1,1] ! Compute two EOM-EE triplet excited states
   CC_REF_PROP          = true ! Compute ground state properties
   CC_EOM_PROP          = true ! Compute excited state properties
!   CC_OSFNO             = true
   GUI                  = 2
$end
--------------------------------------------------------------
 ----------------------------------------------------------------
             Standard Nuclear Orientation (Angstroms)
    I     Atom           X                Y                Z
 ----------------------------------------------------------------
    1      O      -0.0000000000     0.0000000000     0.0734660736
    2      H      -0.4744137442    -0.0000000000    -0.2938642944
    3      H       0.4744137442    -0.0000000000    -0.2938642944
 ----------------------------------------------------------------
 Molecular Point Group                 C2v   NOp =  4
 Largest Abelian Subgroup              C2v   NOp =  4
 Nuclear Repulsion Energy =          14.66910928 hartrees
 There are        5 alpha and        5 beta electrons
 Requested basis set is STO-3G
 There are 4 shells and 7 basis functions
 Total memory of 2000 MB is distributed as follows: 
   MEM_STATIC is set to 192 MB
   QALLOC/CCMAN JOB total memory use is  1808 MB
 Warning: actual memory use might exceed 2000 MB

 Total QAlloc Memory Limit   2000 MB
 Mega-Array Size       188 MB
 MEM_STATIC part       192 MB

                       Distance Matrix (Angstroms)
             O (  1)   H (  2)
   H (  2)  0.600000
   H (  3)  0.600000  0.948827

 A cutoff of  1.0D-14 yielded     10 shell pairs
 There are        34 function pairs
 Smallest overlap matrix eigenvalue = 1.25E-01

 Scale SEOQF with 1.000000e+00/1.000000e+00/1.000000e+00

 Standard Electronic Orientation quadrupole field applied
 Guess from superposition of atomic densities
 Warning:  Energy on first SCF cycle will be non-variational
 SAD guess density has 10.000000 electrons

 -----------------------------------------------------------------------
  General SCF calculation program by
  Eric Jon Sundstrom, Paul Horn, Yuezhi Mao, Dmitri Zuev, Alec White,
  David Stuck, Shaama M.S., Shane Yost, Joonho Lee, David Small,
  Daniel Levine, Susi Lehtola, Hugh Burton, Evgeny Epifanovsky,
  Bang C. Huynh
 -----------------------------------------------------------------------
 Hartree-Fock
 using 20 threads for integral computing
 -------------------------------------------------------
 OpenMP Integral computing Module                
 Release: version 1.0, May 2013, Q-Chem Inc. Pittsburgh 
 -------------------------------------------------------
 A restricted SCF calculation will be
 performed using DIIS
 SCF converges when DIIS error is below 1.0e-08
 ---------------------------------------
  Cycle       Energy         DIIS error
 ---------------------------------------
    1     -75.5687775789      9.70e-01  
    2     -74.1138492033      4.79e-02  
    3     -74.1273299092      5.87e-03  
    4     -74.1275529184      7.60e-04  
    5     -74.1275567785      4.21e-05  
    6     -74.1275567979      8.72e-06  
    7     -74.1275567988      5.59e-09  Convergence criterion met
 ---------------------------------------
 SCF time:   CPU 0.83s  wall 1.00s 
 SCF   energy in the final basis set =      -74.1275567988
 Total energy in the final basis set =      -74.1275567988


 ------------------------------------------------------------------------------

   CCMAN2: suite of methods based on coupled cluster
           and equation of motion theories.

   Components:
   * libvmm-1.3-trunk
     by Evgeny Epifanovsky, Ilya Kaliman.
   * libtensor-2.5-trunk
     by Evgeny Epifanovsky, Michael Wormit, Dmitry Zuev, Sam Manzer, 
        Ilya Kaliman.
   * libcc-2.5-trunk
     by Evgeny Epifanovsky, Arik Landau, Tomasz Kus, Kirill Khistyaev, 
        Dmitry Zuev, Prashant Manohar, Xintian Feng, Anna Krylov, 
        Matthew Goldey, Alec White, Thomas Jagau, Kaushik Nanda, 
        Anastasia Gunina, Alexander Kunitsa, Joonho Lee.

   CCMAN original authors:
   Anna I. Krylov, C. David Sherrill, Steven R. Gwaltney,
   Edward F. C. Byrd (2000)
   Sergey V. Levchenko, Lyudmila V. Slipchenko, Tao Wang,
   Ana-Maria C. Cristian (2003)
   Piotr A. Pieniazek, C. Melania Oana, Evgeny Epifanovsky (2007)
   Prashant Manohar (2009)

 ------------------------------------------------------------------------------


 Allocating and initializing 1808MB of RAM...
 Calculation will run on 20 cores.


 Alpha MOs, Restricted
 -- Occupied --                  
-20.321  -1.569  -0.861  -0.533  -0.485
  1 A1    2 A1    1 B1    3 A1    1 B2                                         
 -- Virtual --                   
  0.971   1.300
  4 A1    2 B1                                                                 

 Beta MOs, Restricted
 -- Occupied --                  
-20.321  -1.569  -0.861  -0.533  -0.485
  1 A1    2 A1    1 B1    3 A1    1 B2                                         
 -- Virtual --                   
  0.971   1.300
  4 A1    2 B1                                                                 

 Occupation and symmetry of molecular orbitals

 Point group: C2v (4 irreducible representations).

                           A1   A2   B1   B2    All 
 ----------------------------------------------------
 All molecular orbitals:
  - Alpha                  4    0    2    1     7   
  - Beta                   4    0    2    1     7   
 ----------------------------------------------------
 Alpha orbitals:
  - Frozen occupied        0    0    0    0     0   
  - Active occupied        3    0    1    1     5   
  - Active virtual         1    0    1    0     2   
  - Frozen virtual         0    0    0    0     0   
 ----------------------------------------------------
 Beta orbitals:
  - Frozen occupied        0    0    0    0     0   
  - Active occupied        3    0    1    1     5   
  - Active virtual         1    0    1    0     2   
  - Frozen virtual         0    0    0    0     0   
 ----------------------------------------------------

 Import integrals:   CPU 0.00 s  wall 0.00 s

 Import integrals:   CPU 0.93 s  wall 0.27 s

 Run QIS:   CPU 0.01 s  wall 0.02 s

 MP2 amplitudes:   CPU 0.03 s  wall 0.02 s

Running a double precision version
           CCSD T amplitudes will be solved using DIIS.

           Start     Size      MaxIter   EConv     TConv     
           3         7         100       1.00e-06  1.00e-04  
 ------------------------------------------------------------------------------
           Energy (a.u.)   Ediff      Tdiff       Comment
 ------------------------------------------------------------------------------
           -74.14235121                           
     1     -74.14529832   2.95e-03   9.24e-02     
     2     -74.14595984   6.62e-04   1.88e-02     
     3     -74.14611978   1.60e-04   4.52e-03     
     4     -74.14617543   5.56e-05   1.58e-03     Switched to DIIS steps.
     5     -74.14617588   4.40e-07   1.05e-04     
     6     -74.14617586   1.56e-08   1.26e-05     
 ------------------------------------------------------------------------------
           -74.14617586                           CCSD T converged.

End of double precision
 SCF energy                 = -74.12755680
 MP2 energy                 = -74.14235121
 CCSD correlation energy    =  -0.01861906
 CCSD total energy          = -74.14617586

 CCSD  T1^2 = 0.0000  T2^2 = 0.0055  Leading amplitudes:

 Amplitude    Orbitals with energies
 0.0020111216       2 (A1) A                  ->    4 (A1) A                   
                   -1.5688                          0.9715                     
 0.0020111216       2 (A1) B                  ->    4 (A1) B                   
                   -1.5688                          0.9715                     
 0.0019768236       1 (B1) A                  ->    2 (B1) A                   
                   -0.8609                          1.3005                     
 0.0019768236       1 (B1) B                  ->    2 (B1) B                   
                   -0.8609                          1.3005                     

 Amplitude    Orbitals with energies
 -0.0411642361       1 (B1) A      1 (B1) B    ->    2 (B1) A      2 (B1) B     
                    -0.8609       -0.8609            1.3005        1.3005       
  0.0411642361       1 (B1) A      1 (B1) B    ->    2 (B1) B      2 (B1) A     
                    -0.8609       -0.8609            1.3005        1.3005       
  0.0411642361       1 (B1) B      1 (B1) A    ->    2 (B1) A      2 (B1) B     
                    -0.8609       -0.8609            1.3005        1.3005       
 -0.0411642361       1 (B1) B      1 (B1) A    ->    2 (B1) B      2 (B1) A     
                    -0.8609       -0.8609            1.3005        1.3005       

 Computing CCSD intermediates for later calculations in double precision
 Finished.

Running a double precision version
           CCSD Lambda amplitudes will be solved using DIIS.
           Start     Size      MaxIter   EConv     LConv     
           3         7         100       1.00e-06  1.00e-04  
 ------------------------------------------------------------------------------
            Enorm      Ldiff       Comment
 ------------------------------------------------------------------------------
     1     6.31e-04   3.73e-04     
     2     1.40e-04   1.05e-04     
     3     3.48e-05   2.76e-05     
     4     2.96e-06   9.50e-06     Switched to DIIS steps.
     5     3.74e-07   4.28e-07     
 ------------------------------------------------------------------------------
                                   CCSD Lambda converged.

 Computing density matrices in double precision...
 Computing density matrices... Done.
 Reference state properties
 Dipole moment (a.u.): 0.792078 (X 0.000000, Y 0.000000, Z -0.792078)
 R-squared (a.u.): 13.955058 (XX 5.030264, YY 4.247990, ZZ 4.676804)
 Gauge origin (a.u.): (0.000000, 0.000000, 0.000000)
 Angular momentum (a.u.) against gauge origin: 
 (X 0.000000i, Y 0.000000i, Z 0.000000i)
 Traces of the OPDMs: Tr(AA) 5.000000, Tr(BB) 5.000000
 Density matrix was written to a file for further analysis.

 CCSD calculation:   CPU 2.51 s  wall 0.71 s

        Solving for EOMEE-CCSD A1 singlet states.

Running a double precision version
        EOMEE-CCSD/MP2 right amplitudes will be solved using Davidson.
        Amplitudes will be solved using standard  algorithm.
     Hard-coded thresholds: 
     LinDepThresh=1.00e-15  NormThresh=1.00e-06  ReorthogonThresh=1.00e-02

      Roots     MaxVec    MaxIter   Precond   Conv      Shift    
      1         120       60        1         1.00e-05  0.00e+00  
 ------------------------------------------------------------------------------
      Iter ConvRoots NVecs ResNorm Current eigenvalues (eV)
 ------------------------------------------------------------------------------
      0    0      1     5.92e-02   27.8124   
      1    0      2     1.33e-01   27.1919   
      2    0      3     8.32e-04   26.9281   
      3    0      4     9.12e-05   26.9245   
      4    0      5     1.15e-05   26.9244   
      5    1      6     2.50e-07   26.9244*  

     Davidson procedure converged

 EOMEE transition 1/A1
 Total energy = -73.15672403 a.u.  Excitation energy = 26.92435356 eV.
 R0^2 = 0.0000  R1^2 = 0.9830  R2^2 = 0.0170  Res^2 = 2.50e-07
 Conv-d = yes

 Amplitude    Transitions between orbitals
  0.7002337198       3 (A1) A                  ->    4 (A1) A                   
  0.7002337198       3 (A1) B                  ->    4 (A1) B                   
 -0.0328189514       1 (B1) A                  ->    2 (B1) A                   
 -0.0328189514       1 (B1) B                  ->    2 (B1) B                   
 -0.0108727227       2 (A1) A                  ->    4 (A1) A                   
 -0.0108727227       2 (A1) B                  ->    4 (A1) B                   
 -0.0004868736       1 (A1) A                  ->    4 (A1) A                   
 -0.0004868736       1 (A1) B                  ->    4 (A1) B                   
 -0.0641529400       3 (A1) A      1 (B1) B    ->    4 (A1) A      2 (B1) B     
  0.0641529400       3 (A1) A      1 (B1) B    ->    2 (B1) B      4 (A1) A     
 -0.0641529400       1 (B1) A      3 (A1) B    ->    2 (B1) A      4 (A1) B     
  0.0641529400       1 (B1) A      3 (A1) B    ->    4 (A1) B      2 (B1) A     
  0.0641529400       3 (A1) B      1 (B1) A    ->    2 (B1) A      4 (A1) B     
 -0.0641529400       3 (A1) B      1 (B1) A    ->    4 (A1) B      2 (B1) A     
  0.0641529400       1 (B1) B      3 (A1) A    ->    4 (A1) A      2 (B1) B     
 -0.0641529400       1 (B1) B      3 (A1) A    ->    2 (B1) B      4 (A1) A     
 -0.0366920140       3 (A1) A      3 (A1) B    ->    2 (B1) A      2 (B1) B     
  0.0366920140       3 (A1) A      3 (A1) B    ->    2 (B1) B      2 (B1) A     
  0.0366920140       3 (A1) B      3 (A1) A    ->    2 (B1) A      2 (B1) B     
 -0.0366920140       3 (A1) B      3 (A1) A    ->    2 (B1) B      2 (B1) A     
 -0.0365470259       3 (A1) A      1 (B1) B    ->    2 (B1) A      4 (A1) B     
  0.0365470259       3 (A1) A      1 (B1) B    ->    4 (A1) B      2 (B1) A     
 -0.0365470259       1 (B1) A      3 (A1) B    ->    4 (A1) A      2 (B1) B     
  0.0365470259       1 (B1) A      3 (A1) B    ->    2 (B1) B      4 (A1) A     
  0.0365470259       3 (A1) B      1 (B1) A    ->    4 (A1) A      2 (B1) B     
 -0.0365470259       3 (A1) B      1 (B1) A    ->    2 (B1) B      4 (A1) A     
  0.0365470259       1 (B1) B      3 (A1) A    ->    2 (B1) A      4 (A1) B     
 -0.0365470259       1 (B1) B      3 (A1) A    ->    4 (A1) B      2 (B1) A     
 -0.0276039363       3 (A1) A      1 (B1) A    ->    4 (A1) A      2 (B1) A     
  0.0276039363       3 (A1) A      1 (B1) A    ->    2 (B1) A      4 (A1) A     
  0.0276039363       1 (B1) A      3 (A1) A    ->    4 (A1) A      2 (B1) A     
 -0.0276039363       1 (B1) A      3 (A1) A    ->    2 (B1) A      4 (A1) A     
 -0.0276039363       3 (A1) B      1 (B1) B    ->    4 (A1) B      2 (B1) B     
  0.0276039363       3 (A1) B      1 (B1) B    ->    2 (B1) B      4 (A1) B     
  0.0276039363       1 (B1) B      3 (A1) B    ->    4 (A1) B      2 (B1) B     
 -0.0276039363       1 (B1) B      3 (A1) B    ->    2 (B1) B      4 (A1) B     
  0.0244997437       1 (B2) A      1 (B2) B    ->    4 (A1) A      4 (A1) B     
 -0.0244997437       1 (B2) A      1 (B2) B    ->    4 (A1) B      4 (A1) A     
 -0.0244997437       1 (B2) B      1 (B2) A    ->    4 (A1) A      4 (A1) B     
  0.0244997437       1 (B2) B      1 (B2) A    ->    4 (A1) B      4 (A1) A     
 -0.0219041809       3 (A1) A      3 (A1) B    ->    4 (A1) A      4 (A1) B     
  0.0219041809       3 (A1) A      3 (A1) B    ->    4 (A1) B      4 (A1) A     
  0.0219041809       3 (A1) B      3 (A1) A    ->    4 (A1) A      4 (A1) B     
 -0.0219041809       3 (A1) B      3 (A1) A    ->    4 (A1) B      4 (A1) A     
 -0.0211045173       2 (A1) A      3 (A1) B    ->    4 (A1) A      4 (A1) B     
 -0.0211045173       3 (A1) A      2 (A1) B    ->    4 (A1) A      4 (A1) B     
  0.0211045173       2 (A1) A      3 (A1) B    ->    4 (A1) B      4 (A1) A     
  0.0211045173       3 (A1) A      2 (A1) B    ->    4 (A1) B      4 (A1) A     
  0.0211045173       3 (A1) B      2 (A1) A    ->    4 (A1) A      4 (A1) B     
  0.0211045173       2 (A1) B      3 (A1) A    ->    4 (A1) A      4 (A1) B     
 -0.0211045173       2 (A1) B      3 (A1) A    ->    4 (A1) B      4 (A1) A     
 -0.0211045173       3 (A1) B      2 (A1) A    ->    4 (A1) B      4 (A1) A     
  0.0154887525       2 (A1) A      1 (B1) B    ->    4 (A1) A      2 (B1) B     
 -0.0154887525       2 (A1) A      1 (B1) B    ->    2 (B1) B      4 (A1) A     
  0.0154887525       1 (B1) A      2 (A1) B    ->    2 (B1) A      4 (A1) B     
 -0.0154887525       1 (B1) A      2 (A1) B    ->    4 (A1) B      2 (B1) A     
 -0.0154887525       2 (A1) B      1 (B1) A    ->    2 (B1) A      4 (A1) B     
  0.0154887525       2 (A1) B      1 (B1) A    ->    4 (A1) B      2 (B1) A     
 -0.0154887525       1 (B1) B      2 (A1) A    ->    4 (A1) A      2 (B1) B     
  0.0154887525       1 (B1) B      2 (A1) A    ->    2 (B1) B      4 (A1) A     
 -0.0129025795       2 (A1) A      3 (A1) B    ->    2 (B1) A      2 (B1) B     
 -0.0129025795       3 (A1) A      2 (A1) B    ->    2 (B1) A      2 (B1) B     
  0.0129025795       2 (A1) A      3 (A1) B    ->    2 (B1) B      2 (B1) A     
  0.0129025795       3 (A1) A      2 (A1) B    ->    2 (B1) B      2 (B1) A     
  0.0129025795       3 (A1) B      2 (A1) A    ->    2 (B1) A      2 (B1) B     
  0.0129025795       2 (A1) B      3 (A1) A    ->    2 (B1) A      2 (B1) B     
 -0.0129025795       2 (A1) B      3 (A1) A    ->    2 (B1) B      2 (B1) A     
 -0.0129025795       3 (A1) B      2 (A1) A    ->    2 (B1) B      2 (B1) A     
  0.0092106500       1 (B1) A      1 (B1) B    ->    4 (A1) A      4 (A1) B     
 -0.0092106500       1 (B1) A      1 (B1) B    ->    4 (A1) B      4 (A1) A     
 -0.0092106500       1 (B1) B      1 (B1) A    ->    4 (A1) A      4 (A1) B     
  0.0092106500       1 (B1) B      1 (B1) A    ->    4 (A1) B      4 (A1) A     
  0.0083680040       2 (A1) A      1 (B1) A    ->    4 (A1) A      2 (B1) A     
 -0.0083680040       2 (A1) A      1 (B1) A    ->    2 (B1) A      4 (A1) A     
 -0.0083680040       1 (B1) A      2 (A1) A    ->    4 (A1) A      2 (B1) A     
  0.0083680040       1 (B1) A      2 (A1) A    ->    2 (B1) A      4 (A1) A     
  0.0083680040       2 (A1) B      1 (B1) B    ->    4 (A1) B      2 (B1) B     
 -0.0083680040       2 (A1) B      1 (B1) B    ->    2 (B1) B      4 (A1) B     
 -0.0083680040       1 (B1) B      2 (A1) B    ->    4 (A1) B      2 (B1) B     
  0.0083680040       1 (B1) B      2 (A1) B    ->    2 (B1) B      4 (A1) B     
 -0.0075377646       2 (A1) A      2 (A1) B    ->    4 (A1) A      4 (A1) B     
  0.0075377646       2 (A1) A      2 (A1) B    ->    4 (A1) B      4 (A1) A     
  0.0075377646       2 (A1) B      2 (A1) A    ->    4 (A1) A      4 (A1) B     
 -0.0075377646       2 (A1) B      2 (A1) A    ->    4 (A1) B      4 (A1) A     
  0.0071219473       2 (A1) A      1 (B1) B    ->    2 (B1) A      4 (A1) B     
 -0.0071219473       2 (A1) A      1 (B1) B    ->    4 (A1) B      2 (B1) A     
  0.0071219473       1 (B1) A      2 (A1) B    ->    4 (A1) A      2 (B1) B     
 -0.0071219473       1 (B1) A      2 (A1) B    ->    2 (B1) B      4 (A1) A     
 -0.0071219473       2 (A1) B      1 (B1) A    ->    4 (A1) A      2 (B1) B     
  0.0071219473       2 (A1) B      1 (B1) A    ->    2 (B1) B      4 (A1) A     
 -0.0071219473       1 (B1) B      2 (A1) A    ->    2 (B1) A      4 (A1) B     
  0.0071219473       1 (B1) B      2 (A1) A    ->    4 (A1) B      2 (B1) A     
  0.0028572309       2 (A1) A      2 (A1) B    ->    2 (B1) A      2 (B1) B     
 -0.0028572309       2 (A1) A      2 (A1) B    ->    2 (B1) B      2 (B1) A     
 -0.0028572309       2 (A1) B      2 (A1) A    ->    2 (B1) A      2 (B1) B     
  0.0028572309       2 (A1) B      2 (A1) A    ->    2 (B1) B      2 (B1) A     
  0.0018209086       1 (B1) A      1 (B1) B    ->    2 (B1) A      2 (B1) B     
 -0.0018209086       1 (B1) A      1 (B1) B    ->    2 (B1) B      2 (B1) A     
 -0.0018209086       1 (B1) B      1 (B1) A    ->    2 (B1) A      2 (B1) B     
  0.0018209086       1 (B1) B      1 (B1) A    ->    2 (B1) B      2 (B1) A     
  0.0010915506       1 (A1) A      2 (A1) B    ->    4 (A1) A      4 (A1) B     
  0.0010915506       2 (A1) A      1 (A1) B    ->    4 (A1) A      4 (A1) B     
 -0.0010915506       1 (A1) A      2 (A1) B    ->    4 (A1) B      4 (A1) A     
 -0.0010915506       2 (A1) A      1 (A1) B    ->    4 (A1) B      4 (A1) A     
 -0.0010915506       2 (A1) B      1 (A1) A    ->    4 (A1) A      4 (A1) B     
 -0.0010915506       1 (A1) B      2 (A1) A    ->    4 (A1) A      4 (A1) B     
  0.0010915506       1 (A1) B      2 (A1) A    ->    4 (A1) B      4 (A1) A     
  0.0010915506       2 (A1) B      1 (A1) A    ->    4 (A1) B      4 (A1) A     
 -0.0004823545       1 (A1) A      3 (A1) B    ->    4 (A1) A      4 (A1) B     
 -0.0004823545       3 (A1) A      1 (A1) B    ->    4 (A1) A      4 (A1) B     
  0.0004823545       1 (A1) A      3 (A1) B    ->    4 (A1) B      4 (A1) A     
  0.0004823545       3 (A1) A      1 (A1) B    ->    4 (A1) B      4 (A1) A     
  0.0004823545       3 (A1) B      1 (A1) A    ->    4 (A1) A      4 (A1) B     
  0.0004823545       1 (A1) B      3 (A1) A    ->    4 (A1) A      4 (A1) B     
 -0.0004823545       1 (A1) B      3 (A1) A    ->    4 (A1) B      4 (A1) A     
 -0.0004823545       3 (A1) B      1 (A1) A    ->    4 (A1) B      4 (A1) A     
 -0.0003465815       1 (A1) A      3 (A1) B    ->    2 (B1) A      2 (B1) B     
 -0.0003465815       3 (A1) A      1 (A1) B    ->    2 (B1) A      2 (B1) B     
  0.0003465815       1 (A1) A      3 (A1) B    ->    2 (B1) B      2 (B1) A     
  0.0003465815       3 (A1) A      1 (A1) B    ->    2 (B1) B      2 (B1) A     
  0.0003465815       3 (A1) B      1 (A1) A    ->    2 (B1) A      2 (B1) B     
  0.0003465815       1 (A1) B      3 (A1) A    ->    2 (B1) A      2 (B1) B     
 -0.0003465815       1 (A1) B      3 (A1) A    ->    2 (B1) B      2 (B1) A     
 -0.0003465815       3 (A1) B      1 (A1) A    ->    2 (B1) B      2 (B1) A     
 -0.0002698347       1 (A1) A      1 (B1) B    ->    2 (B1) A      4 (A1) B     
  0.0002698347       1 (A1) A      1 (B1) B    ->    4 (A1) B      2 (B1) A     
 -0.0002698347       1 (B1) A      1 (A1) B    ->    4 (A1) A      2 (B1) B     
  0.0002698347       1 (B1) A      1 (A1) B    ->    2 (B1) B      4 (A1) A     
  0.0002698347       1 (A1) B      1 (B1) A    ->    4 (A1) A      2 (B1) B     
 -0.0002698347       1 (A1) B      1 (B1) A    ->    2 (B1) B      4 (A1) A     
  0.0002698347       1 (B1) B      1 (A1) A    ->    2 (B1) A      4 (A1) B     
 -0.0002698347       1 (B1) B      1 (A1) A    ->    4 (A1) B      2 (B1) A     
  0.0001680030       1 (A1) A      1 (A1) B    ->    4 (A1) A      4 (A1) B     
 -0.0001680030       1 (A1) A      1 (A1) B    ->    4 (A1) B      4 (A1) A     
 -0.0001680030       1 (A1) B      1 (A1) A    ->    4 (A1) A      4 (A1) B     
  0.0001680030       1 (A1) B      1 (A1) A    ->    4 (A1) B      4 (A1) A     
  0.0001418493       1 (A1) A      1 (B1) A    ->    4 (A1) A      2 (B1) A     
 -0.0001418493       1 (A1) A      1 (B1) A    ->    2 (B1) A      4 (A1) A     
 -0.0001418493       1 (B1) A      1 (A1) A    ->    4 (A1) A      2 (B1) A     
  0.0001418493       1 (B1) A      1 (A1) A    ->    2 (B1) A      4 (A1) A     
  0.0001418493       1 (A1) B      1 (B1) B    ->    4 (A1) B      2 (B1) B     
 -0.0001418493       1 (A1) B      1 (B1) B    ->    2 (B1) B      4 (A1) B     
 -0.0001418493       1 (B1) B      1 (A1) B    ->    4 (A1) B      2 (B1) B     
  0.0001418493       1 (B1) B      1 (A1) B    ->    2 (B1) B      4 (A1) B     
 -0.0001278563       1 (A1) A      1 (B1) B    ->    4 (A1) A      2 (B1) B     
  0.0001278563       1 (A1) A      1 (B1) B    ->    2 (B1) B      4 (A1) A     
 -0.0001278563       1 (B1) A      1 (A1) B    ->    2 (B1) A      4 (A1) B     
  0.0001278563       1 (B1) A      1 (A1) B    ->    4 (A1) B      2 (B1) A     
  0.0001278563       1 (A1) B      1 (B1) A    ->    2 (B1) A      4 (A1) B     
 -0.0001278563       1 (A1) B      1 (B1) A    ->    4 (A1) B      2 (B1) A     
  0.0001278563       1 (B1) B      1 (A1) A    ->    4 (A1) A      2 (B1) B     
 -0.0001278563       1 (B1) B      1 (A1) A    ->    2 (B1) B      4 (A1) A     
 -0.0001041346       1 (A1) A      2 (A1) B    ->    2 (B1) A      2 (B1) B     
 -0.0001041346       2 (A1) A      1 (A1) B    ->    2 (B1) A      2 (B1) B     
  0.0001041346       1 (A1) A      2 (A1) B    ->    2 (B1) B      2 (B1) A     
  0.0001041346       2 (A1) A      1 (A1) B    ->    2 (B1) B      2 (B1) A     
  0.0001041346       2 (A1) B      1 (A1) A    ->    2 (B1) A      2 (B1) B     
  0.0001041346       1 (A1) B      2 (A1) A    ->    2 (B1) A      2 (B1) B     
 -0.0001041346       1 (A1) B      2 (A1) A    ->    2 (B1) B      2 (B1) A     
 -0.0001041346       2 (A1) B      1 (A1) A    ->    2 (B1) B      2 (B1) A     
  0.0000452185       1 (B2) A      1 (B2) B    ->    2 (B1) A      2 (B1) B     
 -0.0000452185       1 (B2) A      1 (B2) B    ->    2 (B1) B      2 (B1) A     
 -0.0000452185       1 (B2) B      1 (B2) A    ->    2 (B1) A      2 (B1) B     
  0.0000452185       1 (B2) B      1 (B2) A    ->    2 (B1) B      2 (B1) A     
  0.0000448149       1 (A1) A      1 (A1) B    ->    2 (B1) A      2 (B1) B     
 -0.0000448149       1 (A1) A      1 (A1) B    ->    2 (B1) B      2 (B1) A     
 -0.0000448149       1 (A1) B      1 (A1) A    ->    2 (B1) A      2 (B1) B     
  0.0000448149       1 (A1) B      1 (A1) A    ->    2 (B1) B      2 (B1) A     

              Summary of significant orbitals:

               Number  Type             Irrep      Energy
               1       Occ  Alpha       1 (A1)    -20.3208
               2       Occ  Alpha       2 (A1)     -1.5688
               4       Occ  Alpha       3 (A1)     -0.5328
               3       Occ  Alpha       1 (B1)     -0.8609
               5       Occ  Alpha       1 (B2)     -0.4848
               1       Occ  Beta        1 (A1)    -20.3208
               2       Occ  Beta        2 (A1)     -1.5688
               4       Occ  Beta        3 (A1)     -0.5328
               3       Occ  Beta        1 (B1)     -0.8609
               5       Occ  Beta        1 (B2)     -0.4848
               6       Vir  Alpha       4 (A1)      0.9715
               7       Vir  Alpha       2 (B1)      1.3005
               6       Vir  Beta        4 (A1)      0.9715
               7       Vir  Beta        2 (B1)      1.3005


 EEs and amplitudes of EOMEE has be exported to fchk file
Running a double precision version
      EOM-CCSD/MP2 left amplitudes will be solved using Davidson.
        Amplitudes will be solved using MOM  algorithm.
     Hard-coded thresholds: 
     LinDepThresh=1.00e-15  NormThresh=1.00e-06  ReorthogonThresh=1.00e-02

      Roots     MaxVec    MaxIter   Precond   Conv      Shift    
      1         120       60        1         1.00e-05  0.00e+00  
 ------------------------------------------------------------------------------
      Iter ConvRoots NVecs ResNorm Current eigenvalues (eV)
 ------------------------------------------------------------------------------
      0    0      1     7.50e-05   26.9244   
      1    0      2     9.15e-05   26.9243   
      2    1      3     1.53e-06   26.9243*  

     Davidson procedure converged

 Excited state properties for  EOMEE-CCSD transition 1/A1
 Dipole moment (a.u.): 0.365255 (X 0.000000, Y 0.000000, Z 0.365255)
 R-squared (a.u.): 16.511653 (XX 6.589139, YY 4.788942, ZZ 5.133572)
 Gauge origin (a.u.): (0.000000, 0.000000, 0.000000)
 Angular momentum (a.u.) against gauge origin: 
 (X 0.000000i, Y 0.000000i, Z 0.000000i)
 Traces of the OPDMs: Tr(AA) 5.000000, Tr(BB) 5.000000

        Solving for EOMEE-CCSD A2 singlet states.

Running a double precision version
        EOMEE-CCSD/MP2 right amplitudes will be solved using Davidson.
        Amplitudes will be solved using standard  algorithm.
     Hard-coded thresholds: 
     LinDepThresh=1.00e-15  NormThresh=1.00e-06  ReorthogonThresh=1.00e-02

      Roots     MaxVec    MaxIter   Precond   Conv      Shift    
      1         120       60        1         1.00e-05  0.00e+00  
 ------------------------------------------------------------------------------
      Iter ConvRoots NVecs ResNorm Current eigenvalues (eV)
 ------------------------------------------------------------------------------
      0    0      1     3.10e-02   32.0379   
      1    0      2     7.11e-03   31.5995   
      2    0      3     7.90e-04   31.5704   
      3    1      4     4.91e-06   31.5687*  

     Davidson procedure converged

 EOMEE transition 1/A2
 Total energy = -72.98604747 a.u.  Excitation energy = 31.56869894 eV.
 R0^2 = 0.0000  R1^2 = 0.9894  R2^2 = 0.0106  Res^2 = 4.91e-06
 Conv-d = yes

 Amplitude    Transitions between orbitals
  0.7033579786       1 (B2) A                  ->    2 (B1) A                   
  0.7033579786       1 (B2) B                  ->    2 (B1) B                   
 -0.0398698895       1 (B1) A      1 (B2) B    ->    2 (B1) A      2 (B1) B     
  0.0398698895       1 (B1) A      1 (B2) B    ->    2 (B1) B      2 (B1) A     
 -0.0398698895       1 (B2) A      1 (B1) B    ->    2 (B1) A      2 (B1) B     
  0.0398698895       1 (B2) A      1 (B1) B    ->    2 (B1) B      2 (B1) A     
  0.0398698895       1 (B1) B      1 (B2) A    ->    2 (B1) A      2 (B1) B     
 -0.0398698895       1 (B1) B      1 (B2) A    ->    2 (B1) B      2 (B1) A     
  0.0398698895       1 (B2) B      1 (B1) A    ->    2 (B1) A      2 (B1) B     
 -0.0398698895       1 (B2) B      1 (B1) A    ->    2 (B1) B      2 (B1) A     
 -0.0346132149       2 (A1) A      1 (B2) B    ->    2 (B1) A      4 (A1) B     
  0.0346132149       2 (A1) A      1 (B2) B    ->    4 (A1) B      2 (B1) A     
 -0.0346132149       1 (B2) A      2 (A1) B    ->    4 (A1) A      2 (B1) B     
  0.0346132149       1 (B2) A      2 (A1) B    ->    2 (B1) B      4 (A1) A     
  0.0346132149       2 (A1) B      1 (B2) A    ->    4 (A1) A      2 (B1) B     
 -0.0346132149       2 (A1) B      1 (B2) A    ->    2 (B1) B      4 (A1) A     
  0.0346132149       1 (B2) B      2 (A1) A    ->    2 (B1) A      4 (A1) B     
 -0.0346132149       1 (B2) B      2 (A1) A    ->    4 (A1) B      2 (B1) A     
 -0.0305221876       2 (A1) A      1 (B2) B    ->    4 (A1) A      2 (B1) B     
  0.0305221876       2 (A1) A      1 (B2) B    ->    2 (B1) B      4 (A1) A     
 -0.0305221876       1 (B2) A      2 (A1) B    ->    2 (B1) A      4 (A1) B     
  0.0305221876       1 (B2) A      2 (A1) B    ->    4 (A1) B      2 (B1) A     
  0.0305221876       2 (A1) B      1 (B2) A    ->    2 (B1) A      4 (A1) B     
 -0.0305221876       2 (A1) B      1 (B2) A    ->    4 (A1) B      2 (B1) A     
  0.0305221876       1 (B2) B      2 (A1) A    ->    4 (A1) A      2 (B1) B     
 -0.0305221876       1 (B2) B      2 (A1) A    ->    2 (B1) B      4 (A1) A     
 -0.0305116682       1 (B1) A      1 (B2) B    ->    4 (A1) A      4 (A1) B     
  0.0305116682       1 (B1) A      1 (B2) B    ->    4 (A1) B      4 (A1) A     
 -0.0305116682       1 (B2) A      1 (B1) B    ->    4 (A1) A      4 (A1) B     
  0.0305116682       1 (B2) A      1 (B1) B    ->    4 (A1) B      4 (A1) A     
  0.0305116682       1 (B1) B      1 (B2) A    ->    4 (A1) A      4 (A1) B     
 -0.0305116682       1 (B1) B      1 (B2) A    ->    4 (A1) B      4 (A1) A     
  0.0305116682       1 (B2) B      1 (B1) A    ->    4 (A1) A      4 (A1) B     
 -0.0305116682       1 (B2) B      1 (B1) A    ->    4 (A1) B      4 (A1) A     
 -0.0195201218       3 (A1) A      1 (B2) B    ->    2 (B1) A      4 (A1) B     
  0.0195201218       3 (A1) A      1 (B2) B    ->    4 (A1) B      2 (B1) A     
 -0.0195201218       1 (B2) A      3 (A1) B    ->    4 (A1) A      2 (B1) B     
  0.0195201218       1 (B2) A      3 (A1) B    ->    2 (B1) B      4 (A1) A     
  0.0195201218       3 (A1) B      1 (B2) A    ->    4 (A1) A      2 (B1) B     
 -0.0195201218       3 (A1) B      1 (B2) A    ->    2 (B1) B      4 (A1) A     
  0.0195201218       1 (B2) B      3 (A1) A    ->    2 (B1) A      4 (A1) B     
 -0.0195201218       1 (B2) B      3 (A1) A    ->    4 (A1) B      2 (B1) A     
 -0.0146737211       3 (A1) A      1 (B2) B    ->    4 (A1) A      2 (B1) B     
  0.0146737211       3 (A1) A      1 (B2) B    ->    2 (B1) B      4 (A1) A     
 -0.0146737211       1 (B2) A      3 (A1) B    ->    2 (B1) A      4 (A1) B     
  0.0146737211       1 (B2) A      3 (A1) B    ->    4 (A1) B      2 (B1) A     
  0.0146737211       3 (A1) B      1 (B2) A    ->    2 (B1) A      4 (A1) B     
 -0.0146737211       3 (A1) B      1 (B2) A    ->    4 (A1) B      2 (B1) A     
  0.0146737211       1 (B2) B      3 (A1) A    ->    4 (A1) A      2 (B1) B     
 -0.0146737211       1 (B2) B      3 (A1) A    ->    2 (B1) B      4 (A1) A     
  0.0048911177       3 (A1) A      1 (B2) A    ->    4 (A1) A      2 (B1) A     
 -0.0048911177       3 (A1) A      1 (B2) A    ->    2 (B1) A      4 (A1) A     
 -0.0048911177       1 (B2) A      3 (A1) A    ->    4 (A1) A      2 (B1) A     
  0.0048911177       1 (B2) A      3 (A1) A    ->    2 (B1) A      4 (A1) A     
  0.0048911177       3 (A1) B      1 (B2) B    ->    4 (A1) B      2 (B1) B     
 -0.0048911177       3 (A1) B      1 (B2) B    ->    2 (B1) B      4 (A1) B     
 -0.0048911177       1 (B2) B      3 (A1) B    ->    4 (A1) B      2 (B1) B     
  0.0048911177       1 (B2) B      3 (A1) B    ->    2 (B1) B      4 (A1) B     
  0.0041162127       2 (A1) A      1 (B2) A    ->    4 (A1) A      2 (B1) A     
 -0.0041162127       2 (A1) A      1 (B2) A    ->    2 (B1) A      4 (A1) A     
 -0.0041162127       1 (B2) A      2 (A1) A    ->    4 (A1) A      2 (B1) A     
  0.0041162127       1 (B2) A      2 (A1) A    ->    2 (B1) A      4 (A1) A     
  0.0041162127       2 (A1) B      1 (B2) B    ->    4 (A1) B      2 (B1) B     
 -0.0041162127       2 (A1) B      1 (B2) B    ->    2 (B1) B      4 (A1) B     
 -0.0041162127       1 (B2) B      2 (A1) B    ->    4 (A1) B      2 (B1) B     
  0.0041162127       1 (B2) B      2 (A1) B    ->    2 (B1) B      4 (A1) B     
  0.0002311377       1 (A1) A      1 (B2) B    ->    2 (B1) A      4 (A1) B     
 -0.0002311377       1 (A1) A      1 (B2) B    ->    4 (A1) B      2 (B1) A     
  0.0002311377       1 (B2) A      1 (A1) B    ->    4 (A1) A      2 (B1) B     
 -0.0002311377       1 (B2) A      1 (A1) B    ->    2 (B1) B      4 (A1) A     
 -0.0002311377       1 (A1) B      1 (B2) A    ->    4 (A1) A      2 (B1) B     
  0.0002311377       1 (A1) B      1 (B2) A    ->    2 (B1) B      4 (A1) A     
 -0.0002311377       1 (B2) B      1 (A1) A    ->    2 (B1) A      4 (A1) B     
  0.0002311377       1 (B2) B      1 (A1) A    ->    4 (A1) B      2 (B1) A     
  0.0001681030       1 (A1) A      1 (B2) B    ->    4 (A1) A      2 (B1) B     
 -0.0001681030       1 (A1) A      1 (B2) B    ->    2 (B1) B      4 (A1) A     
  0.0001681030       1 (B2) A      1 (A1) B    ->    2 (B1) A      4 (A1) B     
 -0.0001681030       1 (B2) A      1 (A1) B    ->    4 (A1) B      2 (B1) A     
 -0.0001681030       1 (A1) B      1 (B2) A    ->    2 (B1) A      4 (A1) B     
  0.0001681030       1 (A1) B      1 (B2) A    ->    4 (A1) B      2 (B1) A     
 -0.0001681030       1 (B2) B      1 (A1) A    ->    4 (A1) A      2 (B1) B     
  0.0001681030       1 (B2) B      1 (A1) A    ->    2 (B1) B      4 (A1) A     
 -0.0000648372       1 (A1) A      1 (B2) A    ->    4 (A1) A      2 (B1) A     
  0.0000648372       1 (A1) A      1 (B2) A    ->    2 (B1) A      4 (A1) A     
  0.0000648372       1 (B2) A      1 (A1) A    ->    4 (A1) A      2 (B1) A     
 -0.0000648372       1 (B2) A      1 (A1) A    ->    2 (B1) A      4 (A1) A     
 -0.0000648372       1 (A1) B      1 (B2) B    ->    4 (A1) B      2 (B1) B     
  0.0000648372       1 (A1) B      1 (B2) B    ->    2 (B1) B      4 (A1) B     
  0.0000648372       1 (B2) B      1 (A1) B    ->    4 (A1) B      2 (B1) B     
 -0.0000648372       1 (B2) B      1 (A1) B    ->    2 (B1) B      4 (A1) B     

              Summary of significant orbitals:

               Number  Type             Irrep      Energy
               1       Occ  Alpha       1 (A1)    -20.3208
               2       Occ  Alpha       2 (A1)     -1.5688
               4       Occ  Alpha       3 (A1)     -0.5328
               3       Occ  Alpha       1 (B1)     -0.8609
               5       Occ  Alpha       1 (B2)     -0.4848
               1       Occ  Beta        1 (A1)    -20.3208
               2       Occ  Beta        2 (A1)     -1.5688
               4       Occ  Beta        3 (A1)     -0.5328
               3       Occ  Beta        1 (B1)     -0.8609
               5       Occ  Beta        1 (B2)     -0.4848
               6       Vir  Alpha       4 (A1)      0.9715
               7       Vir  Alpha       2 (B1)      1.3005
               6       Vir  Beta        4 (A1)      0.9715
               7       Vir  Beta        2 (B1)      1.3005


 EEs and amplitudes of EOMEE has be exported to fchk file
Running a double precision version
      EOM-CCSD/MP2 left amplitudes will be solved using Davidson.
        Amplitudes will be solved using MOM  algorithm.
     Hard-coded thresholds: 
     LinDepThresh=1.00e-15  NormThresh=1.00e-06  ReorthogonThresh=1.00e-02

      Roots     MaxVec    MaxIter   Precond   Conv      Shift    
      1         120       60        1         1.00e-05  0.00e+00  
 ------------------------------------------------------------------------------
      Iter ConvRoots NVecs ResNorm Current eigenvalues (eV)
 ------------------------------------------------------------------------------
      0    0      1     3.19e-05   31.5687   
      1    0      2     7.47e-05   31.5686   
      2    1      3     1.70e-07   31.5686*  

     Davidson procedure converged

 Excited state properties for  EOMEE-CCSD transition 1/A2
 Dipole moment (a.u.): 0.340022 (X 0.000000, Y 0.000000, Z -0.340022)
 R-squared (a.u.): 15.397382 (XX 6.398509, YY 3.753934, ZZ 5.244939)
 Gauge origin (a.u.): (0.000000, 0.000000, 0.000000)
 Angular momentum (a.u.) against gauge origin: 
 (X 0.000000i, Y 0.000000i, Z 0.000000i)
 Traces of the OPDMs: Tr(AA) 5.000000, Tr(BB) 5.000000

        Solving for EOMEE-CCSD B1 singlet states.

Running a double precision version
        EOMEE-CCSD/MP2 right amplitudes will be solved using Davidson.
        Amplitudes will be solved using standard  algorithm.
     Hard-coded thresholds: 
     LinDepThresh=1.00e-15  NormThresh=1.00e-06  ReorthogonThresh=1.00e-02

      Roots     MaxVec    MaxIter   Precond   Conv      Shift    
      1         120       60        1         1.00e-05  0.00e+00  
 ------------------------------------------------------------------------------
      Iter ConvRoots NVecs ResNorm Current eigenvalues (eV)
 ------------------------------------------------------------------------------
      0    0      1     4.56e-02   35.5792   
      1    0      2     1.10e-01   35.1599   
      2    0      3     6.01e-03   34.7866   
      3    0      4     4.73e-03   34.6371   
      4    0      5     1.65e-03   34.5762   
      5    0      6     5.77e-05   34.5721   
      6    1      7     1.24e-06   34.5719*  

     Davidson procedure converged

 EOMEE transition 1/B1
 Total energy = -72.87568256 a.u.  Excitation energy = 34.57188081 eV.
 R0^2 = 0.0000  R1^2 = 0.9862  R2^2 = 0.0138  Res^2 = 1.24e-06
 Conv-d = yes

 Amplitude    Transitions between orbitals
 -0.6470517411       3 (A1) A                  ->    2 (B1) A                   
 -0.6470517411       3 (A1) B                  ->    2 (B1) B                   
  0.2727374499       1 (B1) A                  ->    4 (A1) A                   
  0.2727374499       1 (B1) B                  ->    4 (A1) B                   
 -0.0075580233       2 (A1) A                  ->    2 (B1) A                   
 -0.0075580233       2 (A1) B                  ->    2 (B1) B                   
  0.0012725896       1 (A1) A                  ->    2 (B1) A                   
  0.0012725896       1 (A1) B                  ->    2 (B1) B                   
  0.0444098362       3 (A1) A      1 (B1) B    ->    2 (B1) A      2 (B1) B     
 -0.0444098362       3 (A1) A      1 (B1) B    ->    2 (B1) B      2 (B1) A     
  0.0444098362       1 (B1) A      3 (A1) B    ->    2 (B1) A      2 (B1) B     
 -0.0444098362       1 (B1) A      3 (A1) B    ->    2 (B1) B      2 (B1) A     
 -0.0444098362       3 (A1) B      1 (B1) A    ->    2 (B1) A      2 (B1) B     
  0.0444098362       3 (A1) B      1 (B1) A    ->    2 (B1) B      2 (B1) A     
 -0.0444098362       1 (B1) B      3 (A1) A    ->    2 (B1) A      2 (B1) B     
  0.0444098362       1 (B1) B      3 (A1) A    ->    2 (B1) B      2 (B1) A     
  0.0349944339       3 (A1) A      3 (A1) B    ->    4 (A1) A      2 (B1) B     
  0.0349944339       3 (A1) A      3 (A1) B    ->    2 (B1) A      4 (A1) B     
 -0.0349944339       3 (A1) A      3 (A1) B    ->    4 (A1) B      2 (B1) A     
 -0.0349944339       3 (A1) A      3 (A1) B    ->    2 (B1) B      4 (A1) A     
 -0.0349944339       3 (A1) B      3 (A1) A    ->    4 (A1) A      2 (B1) B     
 -0.0349944339       3 (A1) B      3 (A1) A    ->    2 (B1) A      4 (A1) B     
  0.0349944339       3 (A1) B      3 (A1) A    ->    4 (A1) B      2 (B1) A     
  0.0349944339       3 (A1) B      3 (A1) A    ->    2 (B1) B      4 (A1) A     
  0.0293771601       3 (A1) A      1 (B1) B    ->    4 (A1) A      4 (A1) B     
 -0.0293771601       3 (A1) A      1 (B1) B    ->    4 (A1) B      4 (A1) A     
  0.0293771601       1 (B1) A      3 (A1) B    ->    4 (A1) A      4 (A1) B     
 -0.0293771601       1 (B1) A      3 (A1) B    ->    4 (A1) B      4 (A1) A     
 -0.0293771601       3 (A1) B      1 (B1) A    ->    4 (A1) A      4 (A1) B     
  0.0293771601       3 (A1) B      1 (B1) A    ->    4 (A1) B      4 (A1) A     
 -0.0293771601       1 (B1) B      3 (A1) A    ->    4 (A1) A      4 (A1) B     
  0.0293771601       1 (B1) B      3 (A1) A    ->    4 (A1) B      4 (A1) A     
  0.0274125787       2 (A1) A      3 (A1) B    ->    4 (A1) A      2 (B1) B     
  0.0274125787       3 (A1) A      2 (A1) B    ->    2 (B1) A      4 (A1) B     
 -0.0274125787       3 (A1) A      2 (A1) B    ->    4 (A1) B      2 (B1) A     
 -0.0274125787       2 (A1) A      3 (A1) B    ->    2 (B1) B      4 (A1) A     
 -0.0274125787       3 (A1) B      2 (A1) A    ->    4 (A1) A      2 (B1) B     
 -0.0274125787       2 (A1) B      3 (A1) A    ->    2 (B1) A      4 (A1) B     
  0.0274125787       2 (A1) B      3 (A1) A    ->    4 (A1) B      2 (B1) A     
  0.0274125787       3 (A1) B      2 (A1) A    ->    2 (B1) B      4 (A1) A     
 -0.0254214958       2 (A1) A      1 (B1) B    ->    2 (B1) A      2 (B1) B     
  0.0254214958       2 (A1) A      1 (B1) B    ->    2 (B1) B      2 (B1) A     
 -0.0254214958       1 (B1) A      2 (A1) B    ->    2 (B1) A      2 (B1) B     
  0.0254214958       1 (B1) A      2 (A1) B    ->    2 (B1) B      2 (B1) A     
  0.0254214958       2 (A1) B      1 (B1) A    ->    2 (B1) A      2 (B1) B     
 -0.0254214958       2 (A1) B      1 (B1) A    ->    2 (B1) B      2 (B1) A     
  0.0254214958       1 (B1) B      2 (A1) A    ->    2 (B1) A      2 (B1) B     
 -0.0254214958       1 (B1) B      2 (A1) A    ->    2 (B1) B      2 (B1) A     
 -0.0252120939       1 (B1) A      1 (B1) B    ->    4 (A1) A      2 (B1) B     
 -0.0252120939       1 (B1) A      1 (B1) B    ->    2 (B1) A      4 (A1) B     
  0.0252120939       1 (B1) A      1 (B1) B    ->    4 (A1) B      2 (B1) A     
  0.0252120939       1 (B1) A      1 (B1) B    ->    2 (B1) B      4 (A1) A     
  0.0252120939       1 (B1) B      1 (B1) A    ->    4 (A1) A      2 (B1) B     
  0.0252120939       1 (B1) B      1 (B1) A    ->    2 (B1) A      4 (A1) B     
 -0.0252120939       1 (B1) B      1 (B1) A    ->    4 (A1) B      2 (B1) A     
 -0.0252120939       1 (B1) B      1 (B1) A    ->    2 (B1) B      4 (A1) A     
  0.0214807014       3 (A1) A      2 (A1) B    ->    4 (A1) A      2 (B1) B     
  0.0214807014       2 (A1) A      3 (A1) B    ->    2 (B1) A      4 (A1) B     
 -0.0214807014       2 (A1) A      3 (A1) B    ->    4 (A1) B      2 (B1) A     
 -0.0214807014       3 (A1) A      2 (A1) B    ->    2 (B1) B      4 (A1) A     
 -0.0214807014       2 (A1) B      3 (A1) A    ->    4 (A1) A      2 (B1) B     
 -0.0214807014       3 (A1) B      2 (A1) A    ->    2 (B1) A      4 (A1) B     
  0.0214807014       3 (A1) B      2 (A1) A    ->    4 (A1) B      2 (B1) A     
  0.0214807014       2 (A1) B      3 (A1) A    ->    2 (B1) B      4 (A1) A     
 -0.0162356926       1 (B2) A      1 (B2) B    ->    4 (A1) A      2 (B1) B     
 -0.0162356926       1 (B2) A      1 (B2) B    ->    2 (B1) A      4 (A1) B     
  0.0162356926       1 (B2) A      1 (B2) B    ->    4 (A1) B      2 (B1) A     
  0.0162356926       1 (B2) A      1 (B2) B    ->    2 (B1) B      4 (A1) A     
  0.0162356926       1 (B2) B      1 (B2) A    ->    4 (A1) A      2 (B1) B     
  0.0162356926       1 (B2) B      1 (B2) A    ->    2 (B1) A      4 (A1) B     
 -0.0162356926       1 (B2) B      1 (B2) A    ->    4 (A1) B      2 (B1) A     
 -0.0162356926       1 (B2) B      1 (B2) A    ->    2 (B1) B      4 (A1) A     
  0.0059645892       2 (A1) A      3 (A1) A    ->    4 (A1) A      2 (B1) A     
 -0.0059645892       3 (A1) A      2 (A1) A    ->    4 (A1) A      2 (B1) A     
 -0.0059645892       2 (A1) A      3 (A1) A    ->    2 (B1) A      4 (A1) A     
  0.0059645892       3 (A1) A      2 (A1) A    ->    2 (B1) A      4 (A1) A     
  0.0059645892       2 (A1) B      3 (A1) B    ->    4 (A1) B      2 (B1) B     
 -0.0059645892       3 (A1) B      2 (A1) B    ->    4 (A1) B      2 (B1) B     
 -0.0059645892       2 (A1) B      3 (A1) B    ->    2 (B1) B      4 (A1) B     
  0.0059645892       3 (A1) B      2 (A1) B    ->    2 (B1) B      4 (A1) B     
  0.0036281498       2 (A1) A      2 (A1) B    ->    4 (A1) A      2 (B1) B     
  0.0036281498       2 (A1) A      2 (A1) B    ->    2 (B1) A      4 (A1) B     
 -0.0036281498       2 (A1) A      2 (A1) B    ->    4 (A1) B      2 (B1) A     
 -0.0036281498       2 (A1) A      2 (A1) B    ->    2 (B1) B      4 (A1) A     
 -0.0036281498       2 (A1) B      2 (A1) A    ->    4 (A1) A      2 (B1) B     
 -0.0036281498       2 (A1) B      2 (A1) A    ->    2 (B1) A      4 (A1) B     
  0.0036281498       2 (A1) B      2 (A1) A    ->    4 (A1) B      2 (B1) A     
  0.0036281498       2 (A1) B      2 (A1) A    ->    2 (B1) B      4 (A1) A     
  0.0035137448       2 (A1) A      1 (B1) B    ->    4 (A1) A      4 (A1) B     
 -0.0035137448       2 (A1) A      1 (B1) B    ->    4 (A1) B      4 (A1) A     
  0.0035137448       1 (B1) A      2 (A1) B    ->    4 (A1) A      4 (A1) B     
 -0.0035137448       1 (B1) A      2 (A1) B    ->    4 (A1) B      4 (A1) A     
 -0.0035137448       2 (A1) B      1 (B1) A    ->    4 (A1) A      4 (A1) B     
  0.0035137448       2 (A1) B      1 (B1) A    ->    4 (A1) B      4 (A1) A     
 -0.0035137448       1 (B1) B      2 (A1) A    ->    4 (A1) A      4 (A1) B     
  0.0035137448       1 (B1) B      2 (A1) A    ->    4 (A1) B      4 (A1) A     
 -0.0003415625       1 (A1) A      2 (A1) B    ->    4 (A1) A      2 (B1) B     
 -0.0003415625       2 (A1) A      1 (A1) B    ->    2 (B1) A      4 (A1) B     
  0.0003415625       2 (A1) A      1 (A1) B    ->    4 (A1) B      2 (B1) A     
  0.0003415625       1 (A1) A      2 (A1) B    ->    2 (B1) B      4 (A1) A     
  0.0003415625       2 (A1) B      1 (A1) A    ->    4 (A1) A      2 (B1) B     
  0.0003415625       1 (A1) B      2 (A1) A    ->    2 (B1) A      4 (A1) B     
 -0.0003415625       1 (A1) B      2 (A1) A    ->    4 (A1) B      2 (B1) A     
 -0.0003415625       2 (A1) B      1 (A1) A    ->    2 (B1) B      4 (A1) A     
 -0.0002065798       2 (A1) A      1 (A1) B    ->    4 (A1) A      2 (B1) B     
 -0.0002065798       1 (A1) A      2 (A1) B    ->    2 (B1) A      4 (A1) B     
  0.0002065798       1 (A1) A      2 (A1) B    ->    4 (A1) B      2 (B1) A     
  0.0002065798       2 (A1) A      1 (A1) B    ->    2 (B1) B      4 (A1) A     
  0.0002065798       1 (A1) B      2 (A1) A    ->    4 (A1) A      2 (B1) B     
  0.0002065798       2 (A1) B      1 (A1) A    ->    2 (B1) A      4 (A1) B     
 -0.0002065798       2 (A1) B      1 (A1) A    ->    4 (A1) B      2 (B1) A     
 -0.0002065798       1 (A1) B      2 (A1) A    ->    2 (B1) B      4 (A1) A     
 -0.0001809761       1 (A1) A      1 (A1) B    ->    4 (A1) A      2 (B1) B     
 -0.0001809761       1 (A1) A      1 (A1) B    ->    2 (B1) A      4 (A1) B     
  0.0001809761       1 (A1) A      1 (A1) B    ->    4 (A1) B      2 (B1) A     
  0.0001809761       1 (A1) A      1 (A1) B    ->    2 (B1) B      4 (A1) A     
  0.0001809761       1 (A1) B      1 (A1) A    ->    4 (A1) A      2 (B1) B     
  0.0001809761       1 (A1) B      1 (A1) A    ->    2 (B1) A      4 (A1) B     
 -0.0001809761       1 (A1) B      1 (A1) A    ->    4 (A1) B      2 (B1) A     
 -0.0001809761       1 (A1) B      1 (A1) A    ->    2 (B1) B      4 (A1) A     
  0.0001775922       1 (A1) A      1 (B1) B    ->    2 (B1) A      2 (B1) B     
 -0.0001775922       1 (A1) A      1 (B1) B    ->    2 (B1) B      2 (B1) A     
  0.0001775922       1 (B1) A      1 (A1) B    ->    2 (B1) A      2 (B1) B     
 -0.0001775922       1 (B1) A      1 (A1) B    ->    2 (B1) B      2 (B1) A     
 -0.0001775922       1 (A1) B      1 (B1) A    ->    2 (B1) A      2 (B1) B     
  0.0001775922       1 (A1) B      1 (B1) A    ->    2 (B1) B      2 (B1) A     
 -0.0001775922       1 (B1) B      1 (A1) A    ->    2 (B1) A      2 (B1) B     
  0.0001775922       1 (B1) B      1 (A1) A    ->    2 (B1) B      2 (B1) A     
 -0.0001339224       1 (A1) A      2 (A1) A    ->    4 (A1) A      2 (B1) A     
  0.0001339224       2 (A1) A      1 (A1) A    ->    4 (A1) A      2 (B1) A     
  0.0001339224       1 (A1) A      2 (A1) A    ->    2 (B1) A      4 (A1) A     
 -0.0001339224       2 (A1) A      1 (A1) A    ->    2 (B1) A      4 (A1) A     
 -0.0001339224       1 (A1) B      2 (A1) B    ->    4 (A1) B      2 (B1) B     
  0.0001339224       2 (A1) B      1 (A1) B    ->    4 (A1) B      2 (B1) B     
  0.0001339224       1 (A1) B      2 (A1) B    ->    2 (B1) B      4 (A1) B     
 -0.0001339224       2 (A1) B      1 (A1) B    ->    2 (B1) B      4 (A1) B     
  0.0001156648       1 (A1) A      3 (A1) B    ->    4 (A1) A      2 (B1) B     
  0.0001156648       3 (A1) A      1 (A1) B    ->    2 (B1) A      4 (A1) B     
 -0.0001156648       3 (A1) A      1 (A1) B    ->    4 (A1) B      2 (B1) A     
 -0.0001156648       1 (A1) A      3 (A1) B    ->    2 (B1) B      4 (A1) A     
 -0.0001156648       3 (A1) B      1 (A1) A    ->    4 (A1) A      2 (B1) B     
 -0.0001156648       1 (A1) B      3 (A1) A    ->    2 (B1) A      4 (A1) B     
  0.0001156648       1 (A1) B      3 (A1) A    ->    4 (A1) B      2 (B1) A     
  0.0001156648       3 (A1) B      1 (A1) A    ->    2 (B1) B      4 (A1) A     
  0.0001008587       1 (A1) A      3 (A1) A    ->    4 (A1) A      2 (B1) A     
 -0.0001008587       3 (A1) A      1 (A1) A    ->    4 (A1) A      2 (B1) A     
 -0.0001008587       1 (A1) A      3 (A1) A    ->    2 (B1) A      4 (A1) A     
  0.0001008587       3 (A1) A      1 (A1) A    ->    2 (B1) A      4 (A1) A     
  0.0001008587       1 (A1) B      3 (A1) B    ->    4 (A1) B      2 (B1) B     
 -0.0001008587       3 (A1) B      1 (A1) B    ->    4 (A1) B      2 (B1) B     
 -0.0001008587       1 (A1) B      3 (A1) B    ->    2 (B1) B      4 (A1) B     
  0.0001008587       3 (A1) B      1 (A1) B    ->    2 (B1) B      4 (A1) B     
 -0.0000411392       1 (A1) A      1 (B1) B    ->    4 (A1) A      4 (A1) B     
  0.0000411392       1 (A1) A      1 (B1) B    ->    4 (A1) B      4 (A1) A     
 -0.0000411392       1 (B1) A      1 (A1) B    ->    4 (A1) A      4 (A1) B     
  0.0000411392       1 (B1) A      1 (A1) B    ->    4 (A1) B      4 (A1) A     
  0.0000411392       1 (A1) B      1 (B1) A    ->    4 (A1) A      4 (A1) B     
 -0.0000411392       1 (A1) B      1 (B1) A    ->    4 (A1) B      4 (A1) A     
  0.0000411392       1 (B1) B      1 (A1) A    ->    4 (A1) A      4 (A1) B     
 -0.0000411392       1 (B1) B      1 (A1) A    ->    4 (A1) B      4 (A1) A     
  0.0000151992       3 (A1) A      1 (A1) B    ->    4 (A1) A      2 (B1) B     
  0.0000151992       1 (A1) A      3 (A1) B    ->    2 (B1) A      4 (A1) B     
 -0.0000151992       1 (A1) A      3 (A1) B    ->    4 (A1) B      2 (B1) A     
 -0.0000151992       3 (A1) A      1 (A1) B    ->    2 (B1) B      4 (A1) A     
 -0.0000151992       1 (A1) B      3 (A1) A    ->    4 (A1) A      2 (B1) B     
 -0.0000151992       3 (A1) B      1 (A1) A    ->    2 (B1) A      4 (A1) B     
  0.0000151992       3 (A1) B      1 (A1) A    ->    4 (A1) B      2 (B1) A     
  0.0000151992       1 (A1) B      3 (A1) A    ->    2 (B1) B      4 (A1) A     

              Summary of significant orbitals:

               Number  Type             Irrep      Energy
               1       Occ  Alpha       1 (A1)    -20.3208
               2       Occ  Alpha       2 (A1)     -1.5688
               4       Occ  Alpha       3 (A1)     -0.5328
               3       Occ  Alpha       1 (B1)     -0.8609
               5       Occ  Alpha       1 (B2)     -0.4848
               1       Occ  Beta        1 (A1)    -20.3208
               2       Occ  Beta        2 (A1)     -1.5688
               4       Occ  Beta        3 (A1)     -0.5328
               3       Occ  Beta        1 (B1)     -0.8609
               5       Occ  Beta        1 (B2)     -0.4848
               6       Vir  Alpha       4 (A1)      0.9715
               7       Vir  Alpha       2 (B1)      1.3005
               6       Vir  Beta        4 (A1)      0.9715
               7       Vir  Beta        2 (B1)      1.3005


 EEs and amplitudes of EOMEE has be exported to fchk file
Running a double precision version
      EOM-CCSD/MP2 left amplitudes will be solved using Davidson.
        Amplitudes will be solved using MOM  algorithm.
     Hard-coded thresholds: 
     LinDepThresh=1.00e-15  NormThresh=1.00e-06  ReorthogonThresh=1.00e-02

      Roots     MaxVec    MaxIter   Precond   Conv      Shift    
      1         120       60        1         1.00e-05  0.00e+00  
 ------------------------------------------------------------------------------
      Iter ConvRoots NVecs ResNorm Current eigenvalues (eV)
 ------------------------------------------------------------------------------
      0    0      1     3.52e-05   34.5719   
      1    0      2     1.44e-04   34.5719   
      2    1      3     1.11e-06   34.5719*  

     Davidson procedure converged

 Excited state properties for  EOMEE-CCSD transition 1/B1
 Dipole moment (a.u.): 0.000520 (X 0.000000, Y 0.000000, Z 0.000520)
 R-squared (a.u.): 15.333073 (XX 6.237078, YY 4.375815, ZZ 4.720180)
 Gauge origin (a.u.): (0.000000, 0.000000, 0.000000)
 Angular momentum (a.u.) against gauge origin: 
 (X 0.000000i, Y 0.000000i, Z 0.000000i)
 Traces of the OPDMs: Tr(AA) 5.000000, Tr(BB) 5.000000

        Solving for EOMEE-CCSD B2 singlet states.

Running a double precision version
        EOMEE-CCSD/MP2 right amplitudes will be solved using Davidson.
        Amplitudes will be solved using standard  algorithm.
     Hard-coded thresholds: 
     LinDepThresh=1.00e-15  NormThresh=1.00e-06  ReorthogonThresh=1.00e-02

      Roots     MaxVec    MaxIter   Precond   Conv      Shift    
      1         120       60        1         1.00e-05  0.00e+00  
 ------------------------------------------------------------------------------
      Iter ConvRoots NVecs ResNorm Current eigenvalues (eV)
 ------------------------------------------------------------------------------
      0    0      1     5.37e-02   26.3593   
      1    0      2     3.12e-02   25.6502   
      2    0      3     2.72e-04   25.5945   
      3    1      4     2.21e-06   25.5929*  

     Davidson procedure converged

 EOMEE transition 1/B2
 Total energy = -73.20565511 a.u.  Excitation energy = 25.59287113 eV.
 R0^2 = 0.0000  R1^2 = 0.9853  R2^2 = 0.0147  Res^2 = 2.21e-06
 Conv-d = yes

 Amplitude    Transitions between orbitals
  0.7018917405       1 (B2) A                  ->    4 (A1) A                   
  0.7018917405       1 (B2) B                  ->    4 (A1) B                   
 -0.0524558935       1 (B1) A      1 (B2) B    ->    2 (B1) A      4 (A1) B     
  0.0524558935       1 (B1) A      1 (B2) B    ->    4 (A1) B      2 (B1) A     
 -0.0524558935       1 (B2) A      1 (B1) B    ->    4 (A1) A      2 (B1) B     
  0.0524558935       1 (B2) A      1 (B1) B    ->    2 (B1) B      4 (A1) A     
  0.0524558935       1 (B1) B      1 (B2) A    ->    4 (A1) A      2 (B1) B     
 -0.0524558935       1 (B1) B      1 (B2) A    ->    2 (B1) B      4 (A1) A     
  0.0524558935       1 (B2) B      1 (B1) A    ->    2 (B1) A      4 (A1) B     
 -0.0524558935       1 (B2) B      1 (B1) A    ->    4 (A1) B      2 (B1) A     
 -0.0511214619       2 (A1) A      1 (B2) B    ->    4 (A1) A      4 (A1) B     
  0.0511214619       2 (A1) A      1 (B2) B    ->    4 (A1) B      4 (A1) A     
 -0.0511214619       1 (B2) A      2 (A1) B    ->    4 (A1) A      4 (A1) B     
  0.0511214619       1 (B2) A      2 (A1) B    ->    4 (A1) B      4 (A1) A     
  0.0511214619       2 (A1) B      1 (B2) A    ->    4 (A1) A      4 (A1) B     
 -0.0511214619       2 (A1) B      1 (B2) A    ->    4 (A1) B      4 (A1) A     
  0.0511214619       1 (B2) B      2 (A1) A    ->    4 (A1) A      4 (A1) B     
 -0.0511214619       1 (B2) B      2 (A1) A    ->    4 (A1) B      4 (A1) A     
 -0.0331582768       1 (B1) A      1 (B2) B    ->    4 (A1) A      2 (B1) B     
  0.0331582768       1 (B1) A      1 (B2) B    ->    2 (B1) B      4 (A1) A     
 -0.0331582768       1 (B2) A      1 (B1) B    ->    2 (B1) A      4 (A1) B     
  0.0331582768       1 (B2) A      1 (B1) B    ->    4 (A1) B      2 (B1) A     
  0.0331582768       1 (B1) B      1 (B2) A    ->    2 (B1) A      4 (A1) B     
 -0.0331582768       1 (B1) B      1 (B2) A    ->    4 (A1) B      2 (B1) A     
  0.0331582768       1 (B2) B      1 (B1) A    ->    4 (A1) A      2 (B1) B     
 -0.0331582768       1 (B2) B      1 (B1) A    ->    2 (B1) B      4 (A1) A     
 -0.0209778703       3 (A1) A      1 (B2) B    ->    2 (B1) A      2 (B1) B     
  0.0209778703       3 (A1) A      1 (B2) B    ->    2 (B1) B      2 (B1) A     
 -0.0209778703       1 (B2) A      3 (A1) B    ->    2 (B1) A      2 (B1) B     
  0.0209778703       1 (B2) A      3 (A1) B    ->    2 (B1) B      2 (B1) A     
  0.0209778703       3 (A1) B      1 (B2) A    ->    2 (B1) A      2 (B1) B     
 -0.0209778703       3 (A1) B      1 (B2) A    ->    2 (B1) B      2 (B1) A     
  0.0209778703       1 (B2) B      3 (A1) A    ->    2 (B1) A      2 (B1) B     
 -0.0209778703       1 (B2) B      3 (A1) A    ->    2 (B1) B      2 (B1) A     
  0.0192796689       1 (B1) A      1 (B2) A    ->    4 (A1) A      2 (B1) A     
 -0.0192796689       1 (B1) A      1 (B2) A    ->    2 (B1) A      4 (A1) A     
 -0.0192796689       1 (B2) A      1 (B1) A    ->    4 (A1) A      2 (B1) A     
  0.0192796689       1 (B2) A      1 (B1) A    ->    2 (B1) A      4 (A1) A     
  0.0192796689       1 (B1) B      1 (B2) B    ->    4 (A1) B      2 (B1) B     
 -0.0192796689       1 (B1) B      1 (B2) B    ->    2 (B1) B      4 (A1) B     
 -0.0192796689       1 (B2) B      1 (B1) B    ->    4 (A1) B      2 (B1) B     
  0.0192796689       1 (B2) B      1 (B1) B    ->    2 (B1) B      4 (A1) B     
 -0.0084446066       2 (A1) A      1 (B2) B    ->    2 (B1) A      2 (B1) B     
  0.0084446066       2 (A1) A      1 (B2) B    ->    2 (B1) B      2 (B1) A     
 -0.0084446066       1 (B2) A      2 (A1) B    ->    2 (B1) A      2 (B1) B     
  0.0084446066       1 (B2) A      2 (A1) B    ->    2 (B1) B      2 (B1) A     
  0.0084446066       2 (A1) B      1 (B2) A    ->    2 (B1) A      2 (B1) B     
 -0.0084446066       2 (A1) B      1 (B2) A    ->    2 (B1) B      2 (B1) A     
  0.0084446066       1 (B2) B      2 (A1) A    ->    2 (B1) A      2 (B1) B     
 -0.0084446066       1 (B2) B      2 (A1) A    ->    2 (B1) B      2 (B1) A     
  0.0004382936       1 (A1) A      1 (B2) B    ->    4 (A1) A      4 (A1) B     
 -0.0004382936       1 (A1) A      1 (B2) B    ->    4 (A1) B      4 (A1) A     
  0.0004382936       1 (B2) A      1 (A1) B    ->    4 (A1) A      4 (A1) B     
 -0.0004382936       1 (B2) A      1 (A1) B    ->    4 (A1) B      4 (A1) A     
 -0.0004382936       1 (A1) B      1 (B2) A    ->    4 (A1) A      4 (A1) B     
  0.0004382936       1 (A1) B      1 (B2) A    ->    4 (A1) B      4 (A1) A     
 -0.0004382936       1 (B2) B      1 (A1) A    ->    4 (A1) A      4 (A1) B     
  0.0004382936       1 (B2) B      1 (A1) A    ->    4 (A1) B      4 (A1) A     
 -0.0004354050       1 (A1) A      1 (B2) B    ->    2 (B1) A      2 (B1) B     
  0.0004354050       1 (A1) A      1 (B2) B    ->    2 (B1) B      2 (B1) A     
 -0.0004354050       1 (B2) A      1 (A1) B    ->    2 (B1) A      2 (B1) B     
  0.0004354050       1 (B2) A      1 (A1) B    ->    2 (B1) B      2 (B1) A     
  0.0004354050       1 (A1) B      1 (B2) A    ->    2 (B1) A      2 (B1) B     
 -0.0004354050       1 (A1) B      1 (B2) A    ->    2 (B1) B      2 (B1) A     
  0.0004354050       1 (B2) B      1 (A1) A    ->    2 (B1) A      2 (B1) B     
 -0.0004354050       1 (B2) B      1 (A1) A    ->    2 (B1) B      2 (B1) A     
 -0.0001374004       3 (A1) A      1 (B2) B    ->    4 (A1) A      4 (A1) B     
  0.0001374004       3 (A1) A      1 (B2) B    ->    4 (A1) B      4 (A1) A     
 -0.0001374004       1 (B2) A      3 (A1) B    ->    4 (A1) A      4 (A1) B     
  0.0001374004       1 (B2) A      3 (A1) B    ->    4 (A1) B      4 (A1) A     
  0.0001374004       3 (A1) B      1 (B2) A    ->    4 (A1) A      4 (A1) B     
 -0.0001374004       3 (A1) B      1 (B2) A    ->    4 (A1) B      4 (A1) A     
  0.0001374004       1 (B2) B      3 (A1) A    ->    4 (A1) A      4 (A1) B     
 -0.0001374004       1 (B2) B      3 (A1) A    ->    4 (A1) B      4 (A1) A     

              Summary of significant orbitals:

               Number  Type             Irrep      Energy
               1       Occ  Alpha       1 (A1)    -20.3208
               2       Occ  Alpha       2 (A1)     -1.5688
               4       Occ  Alpha       3 (A1)     -0.5328
               3       Occ  Alpha       1 (B1)     -0.8609
               5       Occ  Alpha       1 (B2)     -0.4848
               1       Occ  Beta        1 (A1)    -20.3208
               2       Occ  Beta        2 (A1)     -1.5688
               4       Occ  Beta        3 (A1)     -0.5328
               3       Occ  Beta        1 (B1)     -0.8609
               5       Occ  Beta        1 (B2)     -0.4848
               6       Vir  Alpha       4 (A1)      0.9715
               7       Vir  Alpha       2 (B1)      1.3005
               6       Vir  Beta        4 (A1)      0.9715
               7       Vir  Beta        2 (B1)      1.3005


 EEs and amplitudes of EOMEE has be exported to fchk file
Running a double precision version
      EOM-CCSD/MP2 left amplitudes will be solved using Davidson.
        Amplitudes will be solved using MOM  algorithm.
     Hard-coded thresholds: 
     LinDepThresh=1.00e-15  NormThresh=1.00e-06  ReorthogonThresh=1.00e-02

      Roots     MaxVec    MaxIter   Precond   Conv      Shift    
      1         120       60        1         1.00e-05  0.00e+00  
 ------------------------------------------------------------------------------
      Iter ConvRoots NVecs ResNorm Current eigenvalues (eV)
 ------------------------------------------------------------------------------
      0    0      1     5.95e-05   25.5929   
      1    0      2     1.30e-04   25.5929   
      2    1      3     1.38e-07   25.5930*  

     Davidson procedure converged

 Excited state properties for  EOMEE-CCSD transition 1/B2
 Dipole moment (a.u.): 0.044179 (X 0.000000, Y 0.000000, Z -0.044179)
 R-squared (a.u.): 16.665658 (XX 6.632673, YY 4.230641, ZZ 5.802344)
 Gauge origin (a.u.): (0.000000, 0.000000, 0.000000)
 Angular momentum (a.u.) against gauge origin: 
 (X 0.000000i, Y 0.000000i, Z 0.000000i)
 Traces of the OPDMs: Tr(AA) 5.000000, Tr(BB) 5.000000

        Solving for EOMEE-CCSD A1 triplet states.

Running a double precision version
        EOMEE-CCSD/MP2 right amplitudes will be solved using Davidson.
        Amplitudes will be solved using standard  algorithm.
     Hard-coded thresholds: 
     LinDepThresh=1.00e-15  NormThresh=1.00e-06  ReorthogonThresh=1.00e-02

      Roots     MaxVec    MaxIter   Precond   Conv      Shift    
      1         120       60        1         1.00e-05  0.00e+00  
 ------------------------------------------------------------------------------
      Iter ConvRoots NVecs ResNorm Current eigenvalues (eV)
 ------------------------------------------------------------------------------
      0    0      1     4.52e-02   26.5777   
      1    0      2     9.39e-02   26.1202   
      2    0      3     4.95e-04   25.9029   
      3    0      4     4.02e-05   25.8985   
      4    1      5     6.93e-06   25.8984*  

     Davidson procedure converged

 EOMEE transition 1/A1
 Total energy = -73.19442791 a.u.  Excitation energy = 25.89837870 eV.
 R0^2 = 0.0000  R1^2 = 0.9892  R2^2 = 0.0108  Res^2 = 6.93e-06
 Conv-d = yes

 Amplitude    Transitions between orbitals
 -0.7018000561       3 (A1) A                  ->    4 (A1) A                   
  0.7018000561       3 (A1) B                  ->    4 (A1) B                   
 -0.0441831930       2 (A1) A                  ->    4 (A1) A                   
  0.0441831930       2 (A1) B                  ->    4 (A1) B                   
 -0.0105159834       1 (B1) A                  ->    2 (B1) A                   
  0.0105159834       1 (B1) B                  ->    2 (B1) B                   
  0.0008038004       1 (A1) A                  ->    4 (A1) A                   
 -0.0008038004       1 (A1) B                  ->    4 (A1) B                   
  0.0645881580       3 (A1) A      1 (B1) B    ->    4 (A1) A      2 (B1) B     
 -0.0645881580       3 (A1) A      1 (B1) B    ->    2 (B1) B      4 (A1) A     
 -0.0645881580       1 (B1) A      3 (A1) B    ->    2 (B1) A      4 (A1) B     
  0.0645881580       1 (B1) A      3 (A1) B    ->    4 (A1) B      2 (B1) A     
  0.0645881580       3 (A1) B      1 (B1) A    ->    2 (B1) A      4 (A1) B     
 -0.0645881580       3 (A1) B      1 (B1) A    ->    4 (A1) B      2 (B1) A     
 -0.0645881580       1 (B1) B      3 (A1) A    ->    4 (A1) A      2 (B1) B     
  0.0645881580       1 (B1) B      3 (A1) A    ->    2 (B1) B      4 (A1) A     
  0.0257773153       3 (A1) A      1 (B1) A    ->    4 (A1) A      2 (B1) A     
 -0.0257773153       3 (A1) A      1 (B1) A    ->    2 (B1) A      4 (A1) A     
 -0.0257773153       1 (B1) A      3 (A1) A    ->    4 (A1) A      2 (B1) A     
  0.0257773153       1 (B1) A      3 (A1) A    ->    2 (B1) A      4 (A1) A     
 -0.0257773153       3 (A1) B      1 (B1) B    ->    4 (A1) B      2 (B1) B     
  0.0257773153       3 (A1) B      1 (B1) B    ->    2 (B1) B      4 (A1) B     
  0.0257773153       1 (B1) B      3 (A1) B    ->    4 (A1) B      2 (B1) B     
 -0.0257773153       1 (B1) B      3 (A1) B    ->    2 (B1) B      4 (A1) B     
 -0.0138332218       2 (A1) A      1 (B1) B    ->    4 (A1) A      2 (B1) B     
  0.0138332218       2 (A1) A      1 (B1) B    ->    2 (B1) B      4 (A1) A     
  0.0138332218       1 (B1) A      2 (A1) B    ->    2 (B1) A      4 (A1) B     
 -0.0138332218       1 (B1) A      2 (A1) B    ->    4 (A1) B      2 (B1) A     
 -0.0138332218       2 (A1) B      1 (B1) A    ->    2 (B1) A      4 (A1) B     
  0.0138332218       2 (A1) B      1 (B1) A    ->    4 (A1) B      2 (B1) A     
  0.0138332218       1 (B1) B      2 (A1) A    ->    4 (A1) A      2 (B1) B     
 -0.0138332218       1 (B1) B      2 (A1) A    ->    2 (B1) B      4 (A1) A     
 -0.0110898288       2 (A1) A      3 (A1) B    ->    4 (A1) A      4 (A1) B     
  0.0110898288       3 (A1) A      2 (A1) B    ->    4 (A1) A      4 (A1) B     
  0.0110898288       2 (A1) A      3 (A1) B    ->    4 (A1) B      4 (A1) A     
 -0.0110898288       3 (A1) A      2 (A1) B    ->    4 (A1) B      4 (A1) A     
  0.0110898288       3 (A1) B      2 (A1) A    ->    4 (A1) A      4 (A1) B     
 -0.0110898288       2 (A1) B      3 (A1) A    ->    4 (A1) A      4 (A1) B     
  0.0110898288       2 (A1) B      3 (A1) A    ->    4 (A1) B      4 (A1) A     
 -0.0110898288       3 (A1) B      2 (A1) A    ->    4 (A1) B      4 (A1) A     
 -0.0099792660       2 (A1) A      3 (A1) B    ->    2 (B1) A      2 (B1) B     
  0.0099792660       3 (A1) A      2 (A1) B    ->    2 (B1) A      2 (B1) B     
  0.0099792660       2 (A1) A      3 (A1) B    ->    2 (B1) B      2 (B1) A     
 -0.0099792660       3 (A1) A      2 (A1) B    ->    2 (B1) B      2 (B1) A     
  0.0099792660       3 (A1) B      2 (A1) A    ->    2 (B1) A      2 (B1) B     
 -0.0099792660       2 (A1) B      3 (A1) A    ->    2 (B1) A      2 (B1) B     
  0.0099792660       2 (A1) B      3 (A1) A    ->    2 (B1) B      2 (B1) A     
 -0.0099792660       3 (A1) B      2 (A1) A    ->    2 (B1) B      2 (B1) A     
  0.0096479106       2 (A1) A      1 (B1) B    ->    2 (B1) A      4 (A1) B     
 -0.0096479106       2 (A1) A      1 (B1) B    ->    4 (A1) B      2 (B1) A     
 -0.0096479106       1 (B1) A      2 (A1) B    ->    4 (A1) A      2 (B1) B     
  0.0096479106       1 (B1) A      2 (A1) B    ->    2 (B1) B      4 (A1) A     
  0.0096479106       2 (A1) B      1 (B1) A    ->    4 (A1) A      2 (B1) B     
 -0.0096479106       2 (A1) B      1 (B1) A    ->    2 (B1) B      4 (A1) A     
 -0.0096479106       1 (B1) B      2 (A1) A    ->    2 (B1) A      4 (A1) B     
  0.0096479106       1 (B1) B      2 (A1) A    ->    4 (A1) B      2 (B1) A     
 -0.0058769825       2 (A1) A      1 (B1) A    ->    4 (A1) A      2 (B1) A     
  0.0058769825       2 (A1) A      1 (B1) A    ->    2 (B1) A      4 (A1) A     
  0.0058769825       1 (B1) A      2 (A1) A    ->    4 (A1) A      2 (B1) A     
 -0.0058769825       1 (B1) A      2 (A1) A    ->    2 (B1) A      4 (A1) A     
  0.0058769825       2 (A1) B      1 (B1) B    ->    4 (A1) B      2 (B1) B     
 -0.0058769825       2 (A1) B      1 (B1) B    ->    2 (B1) B      4 (A1) B     
 -0.0058769825       1 (B1) B      2 (A1) B    ->    4 (A1) B      2 (B1) B     
  0.0058769825       1 (B1) B      2 (A1) B    ->    2 (B1) B      4 (A1) B     
  0.0058524062       3 (A1) A      1 (B1) B    ->    2 (B1) A      4 (A1) B     
 -0.0058524062       3 (A1) A      1 (B1) B    ->    4 (A1) B      2 (B1) A     
 -0.0058524062       1 (B1) A      3 (A1) B    ->    4 (A1) A      2 (B1) B     
  0.0058524062       1 (B1) A      3 (A1) B    ->    2 (B1) B      4 (A1) A     
  0.0058524062       3 (A1) B      1 (B1) A    ->    4 (A1) A      2 (B1) B     
 -0.0058524062       3 (A1) B      1 (B1) A    ->    2 (B1) B      4 (A1) A     
 -0.0058524062       1 (B1) B      3 (A1) A    ->    2 (B1) A      4 (A1) B     
  0.0058524062       1 (B1) B      3 (A1) A    ->    4 (A1) B      2 (B1) A     
 -0.0010021324       1 (A1) A      3 (A1) B    ->    4 (A1) A      4 (A1) B     
  0.0010021324       3 (A1) A      1 (A1) B    ->    4 (A1) A      4 (A1) B     
  0.0010021324       1 (A1) A      3 (A1) B    ->    4 (A1) B      4 (A1) A     
 -0.0010021324       3 (A1) A      1 (A1) B    ->    4 (A1) B      4 (A1) A     
  0.0010021324       3 (A1) B      1 (A1) A    ->    4 (A1) A      4 (A1) B     
 -0.0010021324       1 (A1) B      3 (A1) A    ->    4 (A1) A      4 (A1) B     
  0.0010021324       1 (A1) B      3 (A1) A    ->    4 (A1) B      4 (A1) A     
 -0.0010021324       3 (A1) B      1 (A1) A    ->    4 (A1) B      4 (A1) A     
 -0.0004669415       1 (A1) A      3 (A1) B    ->    2 (B1) A      2 (B1) B     
  0.0004669415       3 (A1) A      1 (A1) B    ->    2 (B1) A      2 (B1) B     
  0.0004669415       1 (A1) A      3 (A1) B    ->    2 (B1) B      2 (B1) A     
 -0.0004669415       3 (A1) A      1 (A1) B    ->    2 (B1) B      2 (B1) A     
  0.0004669415       3 (A1) B      1 (A1) A    ->    2 (B1) A      2 (B1) B     
 -0.0004669415       1 (A1) B      3 (A1) A    ->    2 (B1) A      2 (B1) B     
  0.0004669415       1 (A1) B      3 (A1) A    ->    2 (B1) B      2 (B1) A     
 -0.0004669415       3 (A1) B      1 (A1) A    ->    2 (B1) B      2 (B1) A     
 -0.0003366803       1 (A1) A      1 (B1) B    ->    2 (B1) A      4 (A1) B     
  0.0003366803       1 (A1) A      1 (B1) B    ->    4 (A1) B      2 (B1) A     
  0.0003366803       1 (B1) A      1 (A1) B    ->    4 (A1) A      2 (B1) B     
 -0.0003366803       1 (B1) A      1 (A1) B    ->    2 (B1) B      4 (A1) A     
 -0.0003366803       1 (A1) B      1 (B1) A    ->    4 (A1) A      2 (B1) B     
  0.0003366803       1 (A1) B      1 (B1) A    ->    2 (B1) B      4 (A1) A     
  0.0003366803       1 (B1) B      1 (A1) A    ->    2 (B1) A      4 (A1) B     
 -0.0003366803       1 (B1) B      1 (A1) A    ->    4 (A1) B      2 (B1) A     
 -0.0001724881       1 (A1) A      1 (B1) A    ->    4 (A1) A      2 (B1) A     
  0.0001724881       1 (A1) A      1 (B1) A    ->    2 (B1) A      4 (A1) A     
  0.0001724881       1 (B1) A      1 (A1) A    ->    4 (A1) A      2 (B1) A     
 -0.0001724881       1 (B1) A      1 (A1) A    ->    2 (B1) A      4 (A1) A     
  0.0001724881       1 (A1) B      1 (B1) B    ->    4 (A1) B      2 (B1) B     
 -0.0001724881       1 (A1) B      1 (B1) B    ->    2 (B1) B      4 (A1) B     
 -0.0001724881       1 (B1) B      1 (A1) B    ->    4 (A1) B      2 (B1) B     
  0.0001724881       1 (B1) B      1 (A1) B    ->    2 (B1) B      4 (A1) B     
  0.0001265008       1 (A1) A      1 (B1) B    ->    4 (A1) A      2 (B1) B     
 -0.0001265008       1 (A1) A      1 (B1) B    ->    2 (B1) B      4 (A1) A     
 -0.0001265008       1 (B1) A      1 (A1) B    ->    2 (B1) A      4 (A1) B     
  0.0001265008       1 (B1) A      1 (A1) B    ->    4 (A1) B      2 (B1) A     
[...]
 -0.0005438719       2 (A1) A      1 (A1) B    ->    2 (B1) B      4 (A1) A     
 -0.0005438719       1 (A1) B      2 (A1) A    ->    4 (A1) A      2 (B1) B     
  0.0005438719       2 (A1) B      1 (A1) A    ->    2 (B1) A      4 (A1) B     
 -0.0005438719       2 (A1) B      1 (A1) A    ->    4 (A1) B      2 (B1) A     
  0.0005438719       1 (A1) B      2 (A1) A    ->    2 (B1) B      4 (A1) A     
  0.0005223284       1 (A1) A      2 (A1) B    ->    4 (A1) A      2 (B1) B     
 -0.0005223284       2 (A1) A      1 (A1) B    ->    2 (B1) A      4 (A1) B     
  0.0005223284       2 (A1) A      1 (A1) B    ->    4 (A1) B      2 (B1) A     
 -0.0005223284       1 (A1) A      2 (A1) B    ->    2 (B1) B      4 (A1) A     
 -0.0005223284       2 (A1) B      1 (A1) A    ->    4 (A1) A      2 (B1) B     
  0.0005223284       1 (A1) B      2 (A1) A    ->    2 (B1) A      4 (A1) B     
 -0.0005223284       1 (A1) B      2 (A1) A    ->    4 (A1) B      2 (B1) A     
  0.0005223284       2 (A1) B      1 (A1) A    ->    2 (B1) B      4 (A1) A     
 -0.0003948941       1 (A1) A      3 (A1) B    ->    4 (A1) A      2 (B1) B     
  0.0003948941       3 (A1) A      1 (A1) B    ->    2 (B1) A      4 (A1) B     
 -0.0003948941       3 (A1) A      1 (A1) B    ->    4 (A1) B      2 (B1) A     
  0.0003948941       1 (A1) A      3 (A1) B    ->    2 (B1) B      4 (A1) A     
  0.0003948941       3 (A1) B      1 (A1) A    ->    4 (A1) A      2 (B1) B     
 -0.0003948941       1 (A1) B      3 (A1) A    ->    2 (B1) A      4 (A1) B     
  0.0003948941       1 (A1) B      3 (A1) A    ->    4 (A1) B      2 (B1) A     
 -0.0003948941       3 (A1) B      1 (A1) A    ->    2 (B1) B      4 (A1) A     
  0.0003868212       2 (A1) A      1 (B1) B    ->    4 (A1) A      4 (A1) B     
 -0.0003868212       2 (A1) A      1 (B1) B    ->    4 (A1) B      4 (A1) A     
 -0.0003868212       1 (B1) A      2 (A1) B    ->    4 (A1) A      4 (A1) B     
  0.0003868212       1 (B1) A      2 (A1) B    ->    4 (A1) B      4 (A1) A     
  0.0003868212       2 (A1) B      1 (B1) A    ->    4 (A1) A      4 (A1) B     
 -0.0003868212       2 (A1) B      1 (B1) A    ->    4 (A1) B      4 (A1) A     
 -0.0003868212       1 (B1) B      2 (A1) A    ->    4 (A1) A      4 (A1) B     
  0.0003868212       1 (B1) B      2 (A1) A    ->    4 (A1) B      4 (A1) A     
 -0.0001846955       1 (A1) A      1 (B1) B    ->    2 (B1) A      2 (B1) B     
  0.0001846955       1 (A1) A      1 (B1) B    ->    2 (B1) B      2 (B1) A     
  0.0001846955       1 (B1) A      1 (A1) B    ->    2 (B1) A      2 (B1) B     
 -0.0001846955       1 (B1) A      1 (A1) B    ->    2 (B1) B      2 (B1) A     
 -0.0001846955       1 (A1) B      1 (B1) A    ->    2 (B1) A      2 (B1) B     
  0.0001846955       1 (A1) B      1 (B1) A    ->    2 (B1) B      2 (B1) A     
  0.0001846955       1 (B1) B      1 (A1) A    ->    2 (B1) A      2 (B1) B     
 -0.0001846955       1 (B1) B      1 (A1) A    ->    2 (B1) B      2 (B1) A     
  0.0001501714       1 (A1) A      3 (A1) A    ->    4 (A1) A      2 (B1) A     
 -0.0001501714       3 (A1) A      1 (A1) A    ->    4 (A1) A      2 (B1) A     
 -0.0001501714       1 (A1) A      3 (A1) A    ->    2 (B1) A      4 (A1) A     
  0.0001501714       3 (A1) A      1 (A1) A    ->    2 (B1) A      4 (A1) A     
 -0.0001501714       1 (A1) B      3 (A1) B    ->    4 (A1) B      2 (B1) B     
  0.0001501714       3 (A1) B      1 (A1) B    ->    4 (A1) B      2 (B1) B     
  0.0001501714       1 (A1) B      3 (A1) B    ->    2 (B1) B      4 (A1) B     
 -0.0001501714       3 (A1) B      1 (A1) B    ->    2 (B1) B      4 (A1) B     
  0.0000727232       1 (A1) A      1 (A1) B    ->    4 (A1) A      2 (B1) B     
 -0.0000727232       1 (A1) A      1 (A1) B    ->    2 (B1) A      4 (A1) B     
  0.0000727232       1 (A1) A      1 (A1) B    ->    4 (A1) B      2 (B1) A     
 -0.0000727232       1 (A1) A      1 (A1) B    ->    2 (B1) B      4 (A1) A     
 -0.0000727232       1 (A1) B      1 (A1) A    ->    4 (A1) A      2 (B1) B     
  0.0000727232       1 (A1) B      1 (A1) A    ->    2 (B1) A      4 (A1) B     
 -0.0000727232       1 (A1) B      1 (A1) A    ->    4 (A1) B      2 (B1) A     
  0.0000727232       1 (A1) B      1 (A1) A    ->    2 (B1) B      4 (A1) A     
 -0.0000607180       1 (A1) A      1 (B1) B    ->    4 (A1) A      4 (A1) B     
  0.0000607180       1 (A1) A      1 (B1) B    ->    4 (A1) B      4 (A1) A     
  0.0000607180       1 (B1) A      1 (A1) B    ->    4 (A1) A      4 (A1) B     
 -0.0000607180       1 (B1) A      1 (A1) B    ->    4 (A1) B      4 (A1) A     
 -0.0000607180       1 (A1) B      1 (B1) A    ->    4 (A1) A      4 (A1) B     
  0.0000607180       1 (A1) B      1 (B1) A    ->    4 (A1) B      4 (A1) A     
  0.0000607180       1 (B1) B      1 (A1) A    ->    4 (A1) A      4 (A1) B     
 -0.0000607180       1 (B1) B      1 (A1) A    ->    4 (A1) B      4 (A1) A     
  0.0000542512       1 (A1) A      2 (A1) A    ->    4 (A1) A      2 (B1) A     
 -0.0000542512       2 (A1) A      1 (A1) A    ->    4 (A1) A      2 (B1) A     
 -0.0000542512       1 (A1) A      2 (A1) A    ->    2 (B1) A      4 (A1) A     
  0.0000542512       2 (A1) A      1 (A1) A    ->    2 (B1) A      4 (A1) A     
 -0.0000542512       1 (A1) B      2 (A1) B    ->    4 (A1) B      2 (B1) B     
  0.0000542512       2 (A1) B      1 (A1) B    ->    4 (A1) B      2 (B1) B     
  0.0000542512       1 (A1) B      2 (A1) B    ->    2 (B1) B      4 (A1) B     
 -0.0000542512       2 (A1) B      1 (A1) B    ->    2 (B1) B      4 (A1) B     

              Summary of significant orbitals:

               Number  Type             Irrep      Energy
               1       Occ  Alpha       1 (A1)    -20.3208
               2       Occ  Alpha       2 (A1)     -1.5688
               4       Occ  Alpha       3 (A1)     -0.5328
               3       Occ  Alpha       1 (B1)     -0.8609
               5       Occ  Alpha       1 (B2)     -0.4848
               1       Occ  Beta        1 (A1)    -20.3208
               2       Occ  Beta        2 (A1)     -1.5688
               4       Occ  Beta        3 (A1)     -0.5328
               3       Occ  Beta        1 (B1)     -0.8609
               5       Occ  Beta        1 (B2)     -0.4848
               6       Vir  Alpha       4 (A1)      0.9715
               7       Vir  Alpha       2 (B1)      1.3005
               6       Vir  Beta        4 (A1)      0.9715
               7       Vir  Beta        2 (B1)      1.3005


 EEs and amplitudes of EOMEE has be exported to fchk file
Running a double precision version
      EOM-CCSD/MP2 left amplitudes will be solved using Davidson.
        Amplitudes will be solved using MOM  algorithm.
     Hard-coded thresholds: 
     LinDepThresh=1.00e-15  NormThresh=1.00e-06  ReorthogonThresh=1.00e-02

      Roots     MaxVec    MaxIter   Precond   Conv      Shift    
      1         120       60        1         1.00e-05  0.00e+00  
 ------------------------------------------------------------------------------
      Iter ConvRoots NVecs ResNorm Current eigenvalues (eV)
 ------------------------------------------------------------------------------
      0    0      1     3.29e-05   31.7880   
      1    0      2     1.03e-04   31.7880   
      2    1      3     1.16e-06   31.7881*  

     Davidson procedure converged

 Excited state properties for  EOMEE-CCSD transition 1/B1
 Dipole moment (a.u.): 0.101668 (X 0.000000, Y 0.000000, Z 0.101668)
 R-squared (a.u.): 15.309415 (XX 6.396658, YY 4.324862, ZZ 4.587894)
 Gauge origin (a.u.): (0.000000, 0.000000, 0.000000)
 Angular momentum (a.u.) against gauge origin: 
 (X 0.000000i, Y 0.000000i, Z 0.000000i)
 Traces of the OPDMs: Tr(AA) 5.000000, Tr(BB) 5.000000

        Solving for EOMEE-CCSD B2 triplet states.

Running a double precision version
        EOMEE-CCSD/MP2 right amplitudes will be solved using Davidson.
        Amplitudes will be solved using standard  algorithm.
     Hard-coded thresholds: 
     LinDepThresh=1.00e-15  NormThresh=1.00e-06  ReorthogonThresh=1.00e-02

      Roots     MaxVec    MaxIter   Precond   Conv      Shift    
      1         120       60        1         1.00e-05  0.00e+00  
 ------------------------------------------------------------------------------
      Iter ConvRoots NVecs ResNorm Current eigenvalues (eV)
 ------------------------------------------------------------------------------
      0    0      1     2.68e-02   23.7465   
      1    0      2     6.24e-02   23.4589   
      2    0      3     1.35e-05   23.3366   
      3    1      4     8.43e-07   23.3367*  

     Davidson procedure converged

 EOMEE transition 1/B2
 Total energy = -73.28856971 a.u.  Excitation energy = 23.33665017 eV.
 R0^2 = 0.0000  R1^2 = 0.9915  R2^2 = 0.0085  Res^2 = 8.43e-07
 Conv-d = yes

 Amplitude    Transitions between orbitals
 -0.7041065692       1 (B2) A                  ->    4 (A1) A                   
  0.7041065692       1 (B2) B                  ->    4 (A1) B                   
 -0.0533054897       1 (B1) A      1 (B2) B    ->    2 (B1) A      4 (A1) B     
  0.0533054897       1 (B1) A      1 (B2) B    ->    4 (A1) B      2 (B1) A     
  0.0533054897       1 (B2) A      1 (B1) B    ->    4 (A1) A      2 (B1) B     
 -0.0533054897       1 (B2) A      1 (B1) B    ->    2 (B1) B      4 (A1) A     
 -0.0533054897       1 (B1) B      1 (B2) A    ->    4 (A1) A      2 (B1) B     
  0.0533054897       1 (B1) B      1 (B2) A    ->    2 (B1) B      4 (A1) A     
  0.0533054897       1 (B2) B      1 (B1) A    ->    2 (B1) A      4 (A1) B     
 -0.0533054897       1 (B2) B      1 (B1) A    ->    4 (A1) B      2 (B1) A     
 -0.0222653327       1 (B1) A      1 (B2) A    ->    4 (A1) A      2 (B1) A     
  0.0222653327       1 (B1) A      1 (B2) A    ->    2 (B1) A      4 (A1) A     
  0.0222653327       1 (B2) A      1 (B1) A    ->    4 (A1) A      2 (B1) A     
 -0.0222653327       1 (B2) A      1 (B1) A    ->    2 (B1) A      4 (A1) A     
  0.0222653327       1 (B1) B      1 (B2) B    ->    4 (A1) B      2 (B1) B     
 -0.0222653327       1 (B1) B      1 (B2) B    ->    2 (B1) B      4 (A1) B     
 -0.0222653327       1 (B2) B      1 (B1) B    ->    4 (A1) B      2 (B1) B     
  0.0222653327       1 (B2) B      1 (B1) B    ->    2 (B1) B      4 (A1) B     
 -0.0201583507       3 (A1) A      1 (B2) B    ->    2 (B1) A      2 (B1) B     
  0.0201583507       3 (A1) A      1 (B2) B    ->    2 (B1) B      2 (B1) A     
  0.0201583507       1 (B2) A      3 (A1) B    ->    2 (B1) A      2 (B1) B     
 -0.0201583507       1 (B2) A      3 (A1) B    ->    2 (B1) B      2 (B1) A     
 -0.0201583507       3 (A1) B      1 (B2) A    ->    2 (B1) A      2 (B1) B     
  0.0201583507       3 (A1) B      1 (B2) A    ->    2 (B1) B      2 (B1) A     
  0.0201583507       1 (B2) B      3 (A1) A    ->    2 (B1) A      2 (B1) B     
 -0.0201583507       1 (B2) B      3 (A1) A    ->    2 (B1) B      2 (B1) A     
 -0.0148164601       3 (A1) A      1 (B2) B    ->    4 (A1) A      4 (A1) B     
  0.0148164601       3 (A1) A      1 (B2) B    ->    4 (A1) B      4 (A1) A     
  0.0148164601       1 (B2) A      3 (A1) B    ->    4 (A1) A      4 (A1) B     
 -0.0148164601       1 (B2) A      3 (A1) B    ->    4 (A1) B      4 (A1) A     
 -0.0148164601       3 (A1) B      1 (B2) A    ->    4 (A1) A      4 (A1) B     
  0.0148164601       3 (A1) B      1 (B2) A    ->    4 (A1) B      4 (A1) A     
  0.0148164601       1 (B2) B      3 (A1) A    ->    4 (A1) A      4 (A1) B     
 -0.0148164601       1 (B2) B      3 (A1) A    ->    4 (A1) B      4 (A1) A     
 -0.0113347308       1 (B1) A      1 (B2) B    ->    4 (A1) A      2 (B1) B     
  0.0113347308       1 (B1) A      1 (B2) B    ->    2 (B1) B      4 (A1) A     
  0.0113347308       1 (B2) A      1 (B1) B    ->    2 (B1) A      4 (A1) B     
 -0.0113347308       1 (B2) A      1 (B1) B    ->    4 (A1) B      2 (B1) A     
 -0.0113347308       1 (B1) B      1 (B2) A    ->    2 (B1) A      4 (A1) B     
  0.0113347308       1 (B1) B      1 (B2) A    ->    4 (A1) B      2 (B1) A     
  0.0113347308       1 (B2) B      1 (B1) A    ->    4 (A1) A      2 (B1) B     
 -0.0113347308       1 (B2) B      1 (B1) A    ->    2 (B1) B      4 (A1) A     
 -0.0103321519       2 (A1) A      1 (B2) B    ->    2 (B1) A      2 (B1) B     
  0.0103321519       2 (A1) A      1 (B2) B    ->    2 (B1) B      2 (B1) A     
  0.0103321519       1 (B2) A      2 (A1) B    ->    2 (B1) A      2 (B1) B     
 -0.0103321519       1 (B2) A      2 (A1) B    ->    2 (B1) B      2 (B1) A     
 -0.0103321519       2 (A1) B      1 (B2) A    ->    2 (B1) A      2 (B1) B     
  0.0103321519       2 (A1) B      1 (B2) A    ->    2 (B1) B      2 (B1) A     
  0.0103321519       1 (B2) B      2 (A1) A    ->    2 (B1) A      2 (B1) B     
 -0.0103321519       1 (B2) B      2 (A1) A    ->    2 (B1) B      2 (B1) A     
 -0.0058781896       2 (A1) A      1 (B2) B    ->    4 (A1) A      4 (A1) B     
  0.0058781896       2 (A1) A      1 (B2) B    ->    4 (A1) B      4 (A1) A     
  0.0058781896       1 (B2) A      2 (A1) B    ->    4 (A1) A      4 (A1) B     
 -0.0058781896       1 (B2) A      2 (A1) B    ->    4 (A1) B      4 (A1) A     
 -0.0058781896       2 (A1) B      1 (B2) A    ->    4 (A1) A      4 (A1) B     
  0.0058781896       2 (A1) B      1 (B2) A    ->    4 (A1) B      4 (A1) A     
  0.0058781896       1 (B2) B      2 (A1) A    ->    4 (A1) A      4 (A1) B     
 -0.0058781896       1 (B2) B      2 (A1) A    ->    4 (A1) B      4 (A1) A     
 -0.0009349470       1 (A1) A      1 (B2) B    ->    4 (A1) A      4 (A1) B     
  0.0009349470       1 (A1) A      1 (B2) B    ->    4 (A1) B      4 (A1) A     
  0.0009349470       1 (B2) A      1 (A1) B    ->    4 (A1) A      4 (A1) B     
 -0.0009349470       1 (B2) A      1 (A1) B    ->    4 (A1) B      4 (A1) A     
 -0.0009349470       1 (A1) B      1 (B2) A    ->    4 (A1) A      4 (A1) B     
  0.0009349470       1 (A1) B      1 (B2) A    ->    4 (A1) B      4 (A1) A     
  0.0009349470       1 (B2) B      1 (A1) A    ->    4 (A1) A      4 (A1) B     
 -0.0009349470       1 (B2) B      1 (A1) A    ->    4 (A1) B      4 (A1) A     
 -0.0004190904       1 (A1) A      1 (B2) B    ->    2 (B1) A      2 (B1) B     
  0.0004190904       1 (A1) A      1 (B2) B    ->    2 (B1) B      2 (B1) A     
  0.0004190904       1 (B2) A      1 (A1) B    ->    2 (B1) A      2 (B1) B     
 -0.0004190904       1 (B2) A      1 (A1) B    ->    2 (B1) B      2 (B1) A     
 -0.0004190904       1 (A1) B      1 (B2) A    ->    2 (B1) A      2 (B1) B     
  0.0004190904       1 (A1) B      1 (B2) A    ->    2 (B1) B      2 (B1) A     
  0.0004190904       1 (B2) B      1 (A1) A    ->    2 (B1) A      2 (B1) B     
 -0.0004190904       1 (B2) B      1 (A1) A    ->    2 (B1) B      2 (B1) A     

              Summary of significant orbitals:

               Number  Type             Irrep      Energy
               1       Occ  Alpha       1 (A1)    -20.3208
               2       Occ  Alpha       2 (A1)     -1.5688
               4       Occ  Alpha       3 (A1)     -0.5328
               3       Occ  Alpha       1 (B1)     -0.8609
               5       Occ  Alpha       1 (B2)     -0.4848
               1       Occ  Beta        1 (A1)    -20.3208
               2       Occ  Beta        2 (A1)     -1.5688
               4       Occ  Beta        3 (A1)     -0.5328
               3       Occ  Beta        1 (B1)     -0.8609
               5       Occ  Beta        1 (B2)     -0.4848
               6       Vir  Alpha       4 (A1)      0.9715
               7       Vir  Alpha       2 (B1)      1.3005
               6       Vir  Beta        4 (A1)      0.9715
               7       Vir  Beta        2 (B1)      1.3005


 EEs and amplitudes of EOMEE has be exported to fchk file
Running a double precision version
      EOM-CCSD/MP2 left amplitudes will be solved using Davidson.
        Amplitudes will be solved using MOM  algorithm.
     Hard-coded thresholds: 
     LinDepThresh=1.00e-15  NormThresh=1.00e-06  ReorthogonThresh=1.00e-02

      Roots     MaxVec    MaxIter   Precond   Conv      Shift    
      1         120       60        1         1.00e-05  0.00e+00  
 ------------------------------------------------------------------------------
      Iter ConvRoots NVecs ResNorm Current eigenvalues (eV)
 ------------------------------------------------------------------------------
      0    0      1     3.65e-05   23.3367   
      1    0      2     6.44e-05   23.3366   
      2    1      3     2.37e-07   23.3366*  

     Davidson procedure converged

 Excited state properties for  EOMEE-CCSD transition 1/B2
 Dipole moment (a.u.): 0.035105 (X 0.000000, Y 0.000000, Z -0.035105)
 R-squared (a.u.): 16.795606 (XX 6.697841, YY 4.249475, ZZ 5.848290)
 Gauge origin (a.u.): (0.000000, 0.000000, 0.000000)
 Angular momentum (a.u.) against gauge origin: 
 (X 0.000000i, Y 0.000000i, Z 0.000000i)
 Traces of the OPDMs: Tr(AA) 5.000000, Tr(BB) 5.000000

 EOMEE-CCSD calculation:   CPU 8.21 s  wall 2.67 s

 Total ccman2 time:   CPU 12.14 s  wall 4.32 s


 --------------------------------------------------------------
             Orbital Energies (a.u.) and Symmetries
 --------------------------------------------------------------

 Alpha MOs, Restricted
 -- Occupied --                  
-20.321  -1.569  -0.861  -0.533  -0.485
  1 A1    2 A1    1 B1    3 A1    1 B2                                         
 -- Virtual --                   
  0.971   1.300
  4 A1    2 B1                                                                 

 Beta MOs, Restricted
 -- Occupied --                  
-20.321  -1.569  -0.861  -0.533  -0.485
  1 A1    2 A1    1 B1    3 A1    1 B2                                         
 -- Virtual --                   
  0.971   1.300
  4 A1    2 B1                                                                 
 --------------------------------------------------------------

          Ground-State Mulliken Net Atomic Charges

     Atom                 Charge (a.u.)
  ----------------------------------------
      1 O                    -0.938515
      2 H                     0.469257
      3 H                     0.469257
  ----------------------------------------
  Sum of atomic charges =     0.000000

 -----------------------------------------------------------------
                    Cartesian Multipole Moments
 -----------------------------------------------------------------
    Charge (ESU x 10^10)
                -0.0000
    Dipole Moment (Debye)
         X      -0.0000      Y      -0.0000      Z      -2.0133
       Tot       2.0133
    Quadrupole Moments (Debye-Ang)
        XX      -4.6038     XY       0.0000     YY      -5.7137
        XZ       0.0000     YZ       0.0000     ZZ      -5.2535
    Octopole Moments (Debye-Ang^2)
       XXX      -0.0000    XXY      -0.0000    XYY      -0.0000
       YYY      -0.0000    XXZ      -0.3687    XYZ      -0.0000
       YYZ      -0.1811    XZZ      -0.0000    YZZ      -0.0000
       ZZZ      -0.6639
    Hexadecapole Moments (Debye-Ang^3)
      XXXX      -3.8306   XXXY       0.0000   XXYY      -1.1391
      XYYY       0.0000   YYYY      -2.8120   XXXZ       0.0000
      XXYZ       0.0000   XYYZ       0.0000   YYYZ      -0.0000
      XXZZ      -1.1193   XYZZ       0.0000   YYZZ      -1.0151
      XZZZ       0.0000   YZZZ      -0.0000   ZZZZ      -3.2256
 -----------------------------------------------------------------
 Total job time:  6.44s(wall), 14.03s(cpu) 
 Sun Sep  4 11:40:15 2022

        *************************************************************
        *                                                           *
        *  Thank you very much for using Q-Chem.  Have a nice day.  *
        *                                                           *
        *************************************************************


