Jobname.Temp
SP        R                             STO-3G              
Number of atoms                            I                3
Charge                                     I                0
Multiplicity                               I                1
Number of electrons                        I               10
Number of alpha electrons                  I                5
Number of beta electrons                   I                5
Atomic numbers                             I   N=           3
           8           1           1
Current cartesian coordinates              R   N=           9
 -3.14435592E-17  1.34431969E-17  1.38830759E-01 -8.96512047E-01 -9.63478639E-17
 -5.55323034E-01  8.96512047E-01 -1.11977115E-17 -5.55323034E-01
Nuclear charges                            R   N=           3
  8.00000000E+00  1.00000000E+00  1.00000000E+00
Number of basis functions                  I                7
Number of contracted shells                I                4
Number of primitive shells                 I               12
Highest angular momentum                   I                1
Largest degree of contraction              I                3
Shell types                                I   N=           4
           0          -1           0           0
Number of primitives per shell             I   N=           4
           3           3           3           3
Shell to atom map                          I   N=           4
           1           1           2           3
Primitive exponents                        R   N=          12
  1.30709320E+02  2.38088610E+01  6.44360830E+00  5.03315130E+00  1.16959610E+00
  3.80389000E-01  3.42525091E+00  6.23913730E-01  1.68855400E-01  3.42525091E+00
  6.23913730E-01  1.68855400E-01
Contraction coefficients                   R   N=          12
  1.54328969E-01  5.35328136E-01  4.44634536E-01 -9.99672287E-02  3.99512825E-01
  7.00115461E-01  1.54328971E-01  5.35328142E-01  4.44634542E-01  1.54328971E-01
  5.35328142E-01  4.44634542E-01
P(S=P) Contraction coefficients            R   N=          12
  0.00000000E+00  0.00000000E+00  0.00000000E+00  1.55916268E-01  6.07683714E-01
  3.91957386E-01  0.00000000E+00  0.00000000E+00  0.00000000E+00  0.00000000E+00
  0.00000000E+00  0.00000000E+00
Coordinates of each shell                  R   N=          12
 -3.14435592E-17  1.34431969E-17  1.38830759E-01 -3.14435592E-17  1.34431969E-17
  1.38830759E-01 -8.96512047E-01 -9.63478639E-17 -5.55323034E-01  8.96512047E-01
 -1.11977115E-17 -5.55323034E-01
Overlap Matrix                             R   N=          28
  1.00000000E+00  2.36703937E-01  1.00000000E+00  2.15251244E-33 -5.47882949E-33
  1.00000000E+00 -1.41905121E-33  1.31957070E-33 -9.63631324E-66  1.00000000E+00
 -8.53567277E-18  2.46744544E-17 -1.73592387E-49  4.33980967E-50  1.00000000E+00
  1.21244855E-01  7.26113802E-01 -3.64637255E-01 -4.46551847E-17 -2.82332328E-01
  1.00000000E+00  1.21244855E-01  7.26113802E-01  3.64637255E-01 -1.00221667E-17
 -2.82332328E-01  5.27119822E-01  1.00000000E+00
Core Hamiltonian Matrix                    R   N=          28
 -3.33791790E+01 -7.76861151E+00 -9.82757179E+00  0.00000000E+00  0.00000000E+00
 -8.18837790E+00  0.00000000E+00  0.00000000E+00  0.00000000E+00 -7.85808547E+00
  4.83687895E-02  4.03690508E-01  0.00000000E+00  0.00000000E+00 -8.05610032E+00
 -4.00400450E+00 -6.55173635E+00  2.69972558E+00 -5.81135399E-17  2.29460002E+00
 -7.03743838E+00 -4.00400450E+00 -6.55173635E+00 -2.69972558E+00 -1.30426868E-17
  2.29460002E+00 -4.23162374E+00 -7.03743838E+00
Orbital Coefficients CCMAN2 Alpha          R   N=          49
 -9.93179463E-01 -4.03876710E-02 -7.13250345E-16  1.34971575E-16  9.79303594E-03
  1.24507895E-02  1.24507895E-02 -2.34062134E-01  7.93477168E-01  1.25292933E-15
  2.18311625E-16 -3.05096111E-01  1.08304198E-01  1.08304198E-01  1.06464334E-01
 -5.16588718E-01 -1.87953004E-15  2.11669578E-15 -8.74405293E-01  9.03316818E-02
  9.03316818E-02  8.68950968E-16 -4.71674341E-15  6.75141029E-01 -7.86462166E-16
 -1.90161333E-15 -3.99409700E-01  3.99409700E-01  2.41878964E-16 -8.87960564E-16
 -4.78997650E-16 -1.00000000E+00 -1.95840952E-15  4.14023009E-16 -1.55174512E-16
  1.59755020E-01 -1.92565782E+00  7.44044507E-15  1.61046013E-16  8.12531638E-01
  1.26667866E+00  1.26667866E+00  7.96238075E-16 -1.29896094E-14 -1.35243362E+00
 -1.87895166E-16  4.77395901E-15 -1.50213290E+00  1.50213290E+00
Orbital Coefficients CCMAN2 Beta           R   N=          49
 -2.34062134E-01  7.93477168E-01  1.25292933E-15  2.18311625E-16 -3.05096111E-01
  1.08304198E-01  1.08304198E-01  1.06464334E-01 -5.16588718E-01 -1.87953004E-15
  2.11669578E-15 -8.74405293E-01  9.03316818E-02  9.03316818E-02  8.68950968E-16
 -4.71674341E-15  6.75141029E-01 -7.86462166E-16 -1.90161333E-15 -3.99409700E-01
  3.99409700E-01  2.41878964E-16 -8.87960564E-16 -4.78997650E-16 -1.00000000E+00
 -1.95840952E-15  4.14023009E-16 -1.55174512E-16  1.59755020E-01 -1.92565782E+00
  7.44044507E-15  1.61046013E-16  8.12531638E-01  1.26667866E+00  1.26667866E+00
  7.96238075E-16 -1.29896094E-14 -1.35243362E+00 -1.87895166E-16  4.77395901E-15
 -1.50213290E+00  1.50213290E+00 -9.93179463E-01 -4.03876710E-02 -7.13250345E-16
  1.34971575E-16  9.79303594E-03  1.24507895E-02  1.24507895E-02
EOMEE transition A1 Excitation Energies    R   N=           1
  9.89451829E-01
Number of Active Occ                       I               10
Number of Active Vir                       I                4
Alpha Amplitudes                           R   N=           2
  7.00233720E-01  7.00233720E-01
Alpha J Indexes                            I   N=           2
           0           2
Alpha I Indexes                            I   N=           2
           8          30
EOMEE transition A2 Excitation Energies    R   N=           1
  1.16012839E+00
Number of Active Occ                       I               10
Number of Active Vir                       I                4
Alpha Amplitudes                           R   N=           2
  7.03357979E-01  7.03357979E-01
Alpha J Indexes                            I   N=           2
           0           2
Alpha I Indexes                            I   N=           2
          17          39
EOMEE transition B1 Excitation Energies    R   N=           1
  1.27049330E+00
Number of Active Occ                       I               10
Number of Active Vir                       I                4
Alpha Amplitudes                           R   N=           4
 -6.47051741E-01  2.72737450E-01 -6.47051741E-01  2.72737450E-01
Alpha J Indexes                            I   N=           2
           0           4
Alpha I Indexes                            I   N=           4
           9          12          31          34
EOMEE transition B2 Excitation Energies    R   N=           1
  9.40520748E-01
Number of Active Occ                       I               10
Number of Active Vir                       I                4
Alpha Amplitudes                           R   N=           2
  7.01891741E-01  7.01891741E-01
Alpha J Indexes                            I   N=           2
           0           2
Alpha I Indexes                            I   N=           2
          16          38
EOMEE transition A1 Excitation Energies    R   N=           1
  9.51747945E-01
Number of Active Occ                       I               10
Number of Active Vir                       I                4
Alpha Amplitudes                           R   N=           2
 -7.01800056E-01  7.01800056E-01
Alpha J Indexes                            I   N=           2
           0           2
Alpha I Indexes                            I   N=           2
           8          30
EOMEE transition A2 Excitation Energies    R   N=           1
  1.12236699E+00
Number of Active Occ                       I               10
Number of Active Vir                       I                4
Alpha Amplitudes                           R   N=           2
  7.04211061E-01 -7.04211061E-01
Alpha J Indexes                            I   N=           2
           0           2
Alpha I Indexes                            I   N=           2
          17          39
EOMEE transition B1 Excitation Energies    R   N=           1
  1.16818919E+00
Number of Active Occ                       I               10
Number of Active Vir                       I                4
Alpha Amplitudes                           R   N=           2
 -7.03877731E-01  7.03877731E-01
Alpha J Indexes                            I   N=           2
           0           2
Alpha I Indexes                            I   N=           2
           9          31
EOMEE transition B2 Excitation Energies    R   N=           1
  8.57606149E-01
Number of Active Occ                       I               10
Number of Active Vir                       I                4
Alpha Amplitudes                           R   N=           2
 -7.04106569E-01  7.04106569E-01
Alpha J Indexes                            I   N=           2
           0           2
Alpha I Indexes                            I   N=           2
          16          38
Number of independent functions            I                7
Alpha MO coefficients                      R   N=          49
 -9.93179463E-01 -4.03876710E-02 -7.13250345E-16  1.34971575E-16  9.79303594E-03
  1.24507895E-02  1.24507895E-02 -2.34062134E-01  7.93477168E-01  1.25292933E-15
  2.18311625E-16 -3.05096111E-01  1.08304198E-01  1.08304198E-01  8.68950968E-16
 -4.71674341E-15  6.75141029E-01 -7.86462166E-16 -1.90161333E-15 -3.99409700E-01
  3.99409700E-01  1.06464334E-01 -5.16588718E-01 -1.87953004E-15  2.11669578E-15
 -8.74405293E-01  9.03316818E-02  9.03316818E-02  2.41878964E-16 -8.87960564E-16
 -4.78997650E-16 -1.00000000E+00 -1.95840952E-15  4.14023009E-16 -1.55174512E-16
  1.59755020E-01 -1.92565782E+00  7.44044507E-15  1.61046013E-16  8.12531638E-01
  1.26667866E+00  1.26667866E+00  7.96238075E-16 -1.29896094E-14 -1.35243362E+00
 -1.87895166E-16  4.77395901E-15 -1.50213290E+00  1.50213290E+00
Alpha Orbital Energies                     R   N=           7
 -2.03207712E+01 -1.56883661E+00 -8.60885899E-01 -5.32757100E-01 -4.84789842E-01
  9.71483027E-01  1.30045798E+00
Total SCF Density                          R   N=          28
  2.10487903E+00 -4.01099136E-01  1.80829364E+00  1.59342215E-15 -2.32522807E-15
  9.14008646E-01 -4.01480604E-16 -9.25396165E-17 -9.67106716E-17  1.99904945E+00
 -6.35276347E-02  4.19798075E-01 -7.29744912E-17  9.31490036E-17  1.71027231E+00
 -5.57070296E-02  6.56013033E-02 -5.27059208E-01  2.47952069E-16 -2.22724129E-01
  3.85822727E-01 -5.57070296E-02  6.56013033E-02  5.27059208E-01  1.20557765E-16
 -2.22724129E-01 -2.86514465E-01  3.85822727E-01
Pure Switching                             I                1
Dipole_Data                                R   N=           3
 -5.54046211E-15 -6.38852798E-16 -2.01326150E+00
Quadrupole_Data                            R   N=           6
 -4.60377834E+00  1.57514297E-16 -5.71369173E+00  2.31798309E-15  3.85425892E-17
 -5.25349521E+00
Octapole_Data                              R   N=          10
 -6.00509280E-15 -1.63351351E-16 -1.14602016E-15 -3.37185465E-16 -3.68717179E-01
 -1.21544738E-17 -1.81113296E-01 -1.87464291E-15 -1.42217048E-16 -6.63912189E-01
Hexadecapole_Data                          R   N=          15
 -3.83057357E+00  2.67431982E-17 -1.13908740E+00  1.42085828E-17 -2.81196011E+00
  1.66644169E-15  6.37755100E-18  3.69238319E-16 -2.03799218E-17 -1.11932774E+00
  1.03731756E-17 -1.01507435E+00  1.29694601E-15 -1.56540953E-17 -3.22556493E+00
