Jobname.Temp
SP        R                             6-31G               
Number of atoms                            I                2
Charge                                     I                0
Multiplicity                               I                1
Number of electrons                        I                2
Number of alpha electrons                  I                1
Number of beta electrons                   I                1
Atomic numbers                             I   N=           2
           1           1
Current cartesian coordinates              R   N=           6
  0.00000000E+00  0.00000000E+00 -7.55890450E-01  0.00000000E+00  0.00000000E+00
  7.55890450E-01
Nuclear charges                            R   N=           2
  1.00000000E+00  1.00000000E+00
Number of basis functions                  I                4
Number of contracted shells                I                4
Number of primitive shells                 I                8
Highest angular momentum                   I                0
Largest degree of contraction              I                3
Shell types                                I   N=           4
           0           0           0           0
Number of primitives per shell             I   N=           4
           3           1           3           1
Shell to atom map                          I   N=           4
           1           1           2           2
Primitive exponents                        R   N=           8
  1.87311370E+01  2.82539370E+00  6.40121700E-01  1.61277800E-01  1.87311370E+01
  2.82539370E+00  6.40121700E-01  1.61277800E-01
Contraction coefficients                   R   N=           8
  3.34945995E-02  2.34726947E-01  8.13757318E-01  1.00000000E+00  3.34945995E-02
  2.34726947E-01  8.13757318E-01  1.00000000E+00
Coordinates of each shell                  R   N=          12
  0.00000000E+00  0.00000000E+00 -7.55890450E-01  0.00000000E+00  0.00000000E+00
 -7.55890450E-01  0.00000000E+00  0.00000000E+00  7.55890450E-01  0.00000000E+00
  0.00000000E+00  7.55890450E-01
Overlap Matrix                             R   N=          10
  1.00000000E+00  6.58292049E-01  1.00000000E+00  4.02936965E-01  4.87461572E-01
  1.00000000E+00  4.87461572E-01  8.31687331E-01  6.58292049E-01  1.00000000E+00
Core Hamiltonian Matrix                    R   N=          10
 -9.12196458E-01 -8.96506826E-01 -9.11803768E-01 -7.19481416E-01 -7.33357141E-01
 -9.12196458E-01 -7.33357141E-01 -8.27478788E-01 -8.96506826E-01 -9.11803768E-01
Orbital Coefficients CCMAN2 Alpha          R   N=          16
 -3.17292833E-01 -2.86557736E-01 -3.17292833E-01 -2.86557736E-01  1.34213533E-01
  1.57413504E+00 -1.34213533E-01 -1.57413504E+00 -7.92417545E-01  6.89883025E-01
 -7.92417545E-01  6.89883025E-01 -1.07802170E+00  1.30708704E+00  1.07802170E+00
 -1.30708704E+00
Orbital Coefficients CCMAN2 Beta           R   N=          16
  1.34213533E-01  1.57413504E+00 -1.34213533E-01 -1.57413504E+00 -7.92417545E-01
  6.89883025E-01 -7.92417545E-01  6.89883025E-01 -1.07802170E+00  1.30708704E+00
  1.07802170E+00 -1.30708704E+00 -3.17292833E-01 -2.86557736E-01 -3.17292833E-01
 -2.86557736E-01
EOMEE transition A Excitation Energies     R   N=           3
  5.44402951E-01  1.05608214E+00  1.35726696E+00
Number of Active Occ                       I                2
Number of Active Vir                       I                6
Alpha Amplitudes                           R   N=           6
  7.01506657E-01  7.01506657E-01 -6.95273728E-01 -6.95273728E-01 -4.89938783E-01
 -4.89938783E-01
Alpha J Indexes                            I   N=           4
           0           2           4           6
Alpha I Indexes                            I   N=           6
           0           9           1          10           2          11
EOMEE transition A Excitation Energies     R   N=           3
  3.60948135E-01  8.78864628E-01  1.30763346E+00
Number of Active Occ                       I                2
Number of Active Vir                       I                6
Alpha Amplitudes                           R   N=          10
  6.96920959E-01 -1.06535328E-01 -6.96920959E-01  1.06535328E-01 -7.05453017E-01
  7.05453017E-01 -1.10049457E-01 -6.91782666E-01  1.10049457E-01  6.91782666E-01
Alpha J Indexes                            I   N=           4
           0           4           6          10
Alpha I Indexes                            I   N=          10
           0           2           9          11           1          10
           0           2           9          11
Number of independent functions            I                4
Alpha MO coefficients                      R   N=          16
 -3.17292833E-01 -2.86557736E-01 -3.17292833E-01 -2.86557736E-01  1.34213533E-01
  1.57413504E+00 -1.34213533E-01 -1.57413504E+00 -7.92417545E-01  6.89883025E-01
 -7.92417545E-01  6.89883025E-01 -1.07802170E+00  1.30708704E+00  1.07802170E+00
 -1.30708704E+00
Alpha Orbital Energies                     R   N=           4
 -5.78236774E-01  2.22256223E-01  8.04165031E-01  1.33150525E+00
Total SCF Density                          R   N=          10
  2.21591288E-01  1.88338423E-01  1.70580522E-01  1.94116500E-01  1.64458317E-01
  2.21591288E-01  1.64458317E-01  1.45864775E-01  1.88338423E-01  1.70580522E-01
Pure Switching                             I                1
Dipole_Data                                R   N=           3
  0.00000000E+00  0.00000000E+00 -8.04243003E-15
Quadrupole_Data                            R   N=           6
 -2.09748682E+00  0.00000000E+00 -2.09748682E+00  0.00000000E+00  0.00000000E+00
 -1.65421921E+00
Octapole_Data                              R   N=          10
  0.00000000E+00  0.00000000E+00  0.00000000E+00  0.00000000E+00 -1.91133001E-15
  0.00000000E+00 -1.91133001E-15  0.00000000E+00  0.00000000E+00 -7.11240498E-15
Hexadecapole_Data                          R   N=          15
 -1.98294898E+00  0.00000000E+00 -6.60982995E-01  0.00000000E+00 -1.98294898E+00
  0.00000000E+00  0.00000000E+00  0.00000000E+00  0.00000000E+00 -8.79686583E-01
  0.00000000E+00 -8.79686583E-01  0.00000000E+00  0.00000000E+00 -3.21457663E+00
