Jobname.Temp
SP        R                             STO-3G              
Number of atoms                            I                2
Charge                                     I                0
Multiplicity                               I                1
Number of electrons                        I                4
Number of alpha electrons                  I                2
Number of beta electrons                   I                2
Atomic numbers                             I   N=           2
           3           1
Current cartesian coordinates              R   N=           6
  0.00000000E+00  0.00000000E+00 -5.19674684E-01  0.00000000E+00  0.00000000E+00
  1.55902405E+00
Nuclear charges                            R   N=           2
  3.00000000E+00  1.00000000E+00
Number of basis functions                  I                6
Number of contracted shells                I                3
Number of primitive shells                 I                9
Highest angular momentum                   I                1
Largest degree of contraction              I                3
Shell types                                I   N=           3
           0          -1           0
Number of primitives per shell             I   N=           3
           3           3           3
Shell to atom map                          I   N=           3
           1           1           2
Primitive exponents                        R   N=           9
  1.61195750E+01  2.93620070E+00  7.94650500E-01  6.36289700E-01  1.47860100E-01
  4.80887000E-02  3.42525091E+00  6.23913730E-01  1.68855400E-01
Contraction coefficients                   R   N=           9
  1.54328970E-01  5.35328141E-01  4.44634541E-01 -9.99672298E-02  3.99512829E-01
  7.00115469E-01  1.54328971E-01  5.35328142E-01  4.44634542E-01
P(S=P) Contraction coefficients            R   N=           9
  0.00000000E+00  0.00000000E+00  0.00000000E+00  1.55916265E-01  6.07683701E-01
  3.91957378E-01  0.00000000E+00  0.00000000E+00  0.00000000E+00
Coordinates of each shell                  R   N=           9
  0.00000000E+00  0.00000000E+00 -5.19674684E-01  0.00000000E+00  0.00000000E+00
 -5.19674684E-01  0.00000000E+00  0.00000000E+00  1.55902405E+00
Overlap Matrix                             R   N=          21
  1.00000000E+00  2.41136651E-01  1.00000000E+00  0.00000000E+00  0.00000000E+00
  1.00000000E+00  0.00000000E+00  0.00000000E+00  0.00000000E+00  1.00000000E+00
  1.21660150E-17  4.04520993E-18  0.00000000E+00  0.00000000E+00  1.00000000E+00
  1.88331869E-01  5.15273037E-01  0.00000000E+00  0.00000000E+00  5.56001078E-01
  1.00000000E+00
Core Hamiltonian Matrix                    R   N=          21
 -4.88714512E+00 -1.10003515E+00 -1.45115141E+00  0.00000000E+00  0.00000000E+00
 -1.18708247E+00  0.00000000E+00  0.00000000E+00  0.00000000E+00 -1.18708247E+00
 -3.31278513E-02 -1.40727613E-01  0.00000000E+00  0.00000000E+00 -1.29637302E+00
 -8.90186571E-01 -1.04556219E+00  0.00000000E+00  0.00000000E+00 -1.03568867E+00
 -1.87987346E+00
Orbital Coefficients CCMAN2 Alpha          R   N=          36
  9.87925728E-01  2.33227564E-02 -2.42308822E-17 -1.38911575E-16 -1.40326935E-02
  2.96214155E-02  2.31383956E-01 -4.00179046E-01 -3.67744329E-17  1.11788911E-16
 -3.68746409E-01 -5.43486207E-01 -1.97891907E-01  8.24268074E-01 -1.68337493E-16
 -1.51277156E-16 -5.97698357E-01 -1.31838255E-01 -4.42222271E-17  2.35658303E-16
  1.00000000E+00 -4.12393872E-18 -1.61999609E-16 -6.55229635E-17 -1.37863686E-16
  2.59726354E-16 -9.10683503E-18 -1.00000000E+00  4.70466345E-16 -6.06818411E-16
 -6.35219636E-02 -9.01538723E-01  4.39052746E-17 -3.56311524E-16 -1.11394987E+00
  1.43585506E+00
Orbital Coefficients CCMAN2 Beta           R   N=          36
  2.31383956E-01 -4.00179046E-01 -3.67744329E-17  1.11788911E-16 -3.68746409E-01
 -5.43486207E-01 -1.97891907E-01  8.24268074E-01 -1.68337493E-16 -1.51277156E-16
 -5.97698357E-01 -1.31838255E-01 -4.42222271E-17  2.35658303E-16  1.00000000E+00
 -4.12393872E-18 -1.61999609E-16 -6.55229635E-17 -1.37863686E-16  2.59726354E-16
 -9.10683503E-18 -1.00000000E+00  4.70466345E-16 -6.06818411E-16 -6.35219636E-02
 -9.01538723E-01  4.39052746E-17 -3.56311524E-16 -1.11394987E+00  1.43585506E+00
  9.87925728E-01  2.33227564E-02 -2.42308822E-17 -1.38911575E-16 -1.40326935E-02
  2.96214155E-02
EOMEE transition A Excitation Energies     R   N=           3
  1.44457713E-01  2.01328674E-01  2.01328675E-01
Number of Active Occ                       I                4
Number of Active Vir                       I                8
Alpha Amplitudes                           R   N=           6
 -6.76120115E-01 -6.76120115E-01 -6.75985276E-01 -6.75985276E-01  6.75985276E-01
  6.75985276E-01
Alpha J Indexes                            I   N=           4
           0           2           4           6
Alpha I Indexes                            I   N=           6
           8          28          10          30           9          29
EOMEE transition A Excitation Energies     R   N=           3
  1.30000721E-01  1.71062107E-01  1.71062108E-01
Number of Active Occ                       I                4
Number of Active Vir                       I                8
Alpha Amplitudes                           R   N=           6
 -6.87016061E-01  6.87016061E-01  6.89507692E-01 -6.89507692E-01 -6.89507692E-01
  6.89507692E-01
Alpha J Indexes                            I   N=           4
           0           2           4           6
Alpha I Indexes                            I   N=           6
           8          28          10          30           9          29
Number of independent functions            I                6
Alpha MO coefficients                      R   N=          36
  9.87925728E-01  2.33227564E-02 -2.42308822E-17 -1.38911575E-16 -1.40326935E-02
  2.96214155E-02  2.31383956E-01 -4.00179046E-01 -3.67744329E-17  1.11788911E-16
 -3.68746409E-01 -5.43486207E-01 -1.97891907E-01  8.24268074E-01 -1.68337493E-16
 -1.51277156E-16 -5.97698357E-01 -1.31838255E-01 -4.42222271E-17  2.35658303E-16
  1.00000000E+00 -4.12393872E-18 -1.61999609E-16 -6.55229635E-17 -1.37863686E-16
  2.59726354E-16 -9.10683503E-18 -1.00000000E+00  4.70466345E-16 -6.06818411E-16
 -6.35219636E-02 -9.01538723E-01  4.39052746E-17 -3.56311524E-16 -1.11394987E+00
  1.43585506E+00
Alpha Orbital Energies                     R   N=           6
 -2.35711584E+00 -3.16151182E-01  7.85899778E-02  1.60010355E-01  1.60010356E-01
  6.21336380E-01
Total SCF Density                          R   N=          21
  2.06311478E+00 -1.51431749E-01  3.90552566E-01 -5.37248708E-17  2.60003022E-17
  2.35943902E-03 -7.19986929E-17  2.89433232E-16  4.27853335E-20  2.35943903E-03
 -1.91063912E-01  3.13550192E-01  2.19196227E-17  2.31035764E-16  2.55143048E-01
 -1.95617751E-01  4.09748980E-01  2.83758923E-17  3.14235802E-16  3.43584787E-01
  6.28852105E-01
Pure Switching                             I                1
Dipole_Data                                R   N=           3
 -2.67138309E-16 -3.36352199E-15 -4.69672614E+00
Quadrupole_Data                            R   N=           6
 -5.17921186E+00 -2.70478138E-19 -5.17921186E+00 -1.12846094E-16 -1.06424274E-15
 -5.87749112E+00
Octapole_Data                              R   N=          10
 -7.25524280E-16 -2.73698751E-15 -2.41841427E-16 -8.21096254E-15 -3.27281785E+00
  7.43814880E-20 -3.27281785E+00 -1.95069811E-16 -2.29037261E-15 -9.47290728E+00
Hexadecapole_Data                          R   N=          15
 -1.21320931E+01 -7.15213953E-19 -4.04403103E+00 -7.15213953E-19 -1.21320931E+01
 -2.27643476E-16 -7.58923391E-16 -7.58811586E-17 -2.27677017E-15 -5.34697525E+00
 -2.58859560E-19 -5.34697525E+00 -2.62868291E-16 -2.64163884E-15 -2.05130054E+01
