Jobname.Temp
SP        R                             6-31G               
Number of atoms                            I                2
Charge                                     I                0
Multiplicity                               I                1
Number of electrons                        I                2
Number of alpha electrons                  I                1
Number of beta electrons                   I                1
Atomic numbers                             I   N=           2
           1           1
Current cartesian coordinates              R   N=           6
  0.00000000E+00  0.00000000E+00 -9.44863062E-01  0.00000000E+00  0.00000000E+00
  9.44863062E-01
Nuclear charges                            R   N=           2
  1.00000000E+00  1.00000000E+00
Number of basis functions                  I                4
Number of contracted shells                I                4
Number of primitive shells                 I                8
Highest angular momentum                   I                0
Largest degree of contraction              I                3
Shell types                                I   N=           4
           0           0           0           0
Number of primitives per shell             I   N=           4
           3           1           3           1
Shell to atom map                          I   N=           4
           1           1           2           2
Primitive exponents                        R   N=           8
  1.87311370E+01  2.82539370E+00  6.40121700E-01  1.61277800E-01  1.87311370E+01
  2.82539370E+00  6.40121700E-01  1.61277800E-01
Contraction coefficients                   R   N=           8
  3.34945995E-02  2.34726947E-01  8.13757318E-01  1.00000000E+00  3.34945995E-02
  2.34726947E-01  8.13757318E-01  1.00000000E+00
Coordinates of each shell                  R   N=          12
  0.00000000E+00  0.00000000E+00 -9.44863062E-01  0.00000000E+00  0.00000000E+00
 -9.44863062E-01  0.00000000E+00  0.00000000E+00  9.44863062E-01  0.00000000E+00
  0.00000000E+00  9.44863062E-01
Overlap Matrix                             R   N=          10
  1.00000000E+00  6.58292049E-01  1.00000000E+00  2.53306705E-01  4.11719878E-01
  1.00000000E+00  4.11719878E-01  7.49786530E-01  6.58292049E-01  1.00000000E+00
Core Hamiltonian Matrix                    R   N=          10
 -7.85855032E-01 -8.25753917E-01 -8.59814519E-01 -4.68896185E-01 -5.89133330E-01
 -7.85855032E-01 -5.89133330E-01 -7.29645954E-01 -8.25753917E-01 -8.59814519E-01
Orbital Coefficients CCMAN2 Alpha          R   N=          16
 -2.87332310E-01 -3.31725590E-01 -2.87332310E-01 -3.31725590E-01  1.67863639E-01
  1.22798070E+00 -1.67863639E-01 -1.22798070E+00 -8.67287354E-01  6.98467155E-01
 -8.67287354E-01  6.98467155E-01 -9.82068008E-01  1.20594855E+00  9.82068008E-01
 -1.20594855E+00
Orbital Coefficients CCMAN2 Beta           R   N=          16
  1.67863639E-01  1.22798070E+00 -1.67863639E-01 -1.22798070E+00 -8.67287354E-01
  6.98467155E-01 -8.67287354E-01  6.98467155E-01 -9.82068008E-01  1.20594855E+00
  9.82068008E-01 -1.20594855E+00 -2.87332310E-01 -3.31725590E-01 -2.87332310E-01
 -3.31725590E-01
EOMEE transition A Excitation Energies     R   N=           3
  4.88313713E-01  8.21154496E-01  1.08584523E+00
Number of Active Occ                       I                2
Number of Active Vir                       I                6
Alpha Amplitudes                           R   N=           4
  7.04626222E-01  7.04626222E-01 -6.73381372E-01 -6.73381372E-01
Alpha J Indexes                            I   N=           4
           0           2           2           4
Alpha I Indexes                            I   N=           4
           0           9           1          10
EOMEE transition A Excitation Energies     R   N=           3
  2.60178546E-01  9.51005011E-01  1.15756486E+00
Number of Active Occ                       I                2
Number of Active Vir                       I                6
Alpha Amplitudes                           R   N=          10
  6.97434820E-01 -1.09191362E-01 -6.97434820E-01  1.09191362E-01 -7.02222597E-01
  7.02222597E-01 -1.14414559E-01 -6.86197507E-01  1.14414559E-01  6.86197507E-01
Alpha J Indexes                            I   N=           4
           0           4           6          10
Alpha I Indexes                            I   N=          10
           0           2           9          11           1          10
           0           2           9          11
Number of independent functions            I                4
Alpha MO coefficients                      R   N=          16
 -2.87332310E-01 -3.31725590E-01 -2.87332310E-01 -3.31725590E-01  1.67863639E-01
  1.22798070E+00 -1.67863639E-01 -1.22798070E+00 -8.67287354E-01  6.98467155E-01
 -8.67287354E-01  6.98467155E-01 -9.82068008E-01  1.20594855E+00  9.82068008E-01
 -1.20594855E+00
Alpha Orbital Energies                     R   N=           4
 -5.27543986E-01  1.67707131E-01  9.04277256E-01  1.16226839E+00
Total SCF Density                          R   N=          10
  1.92165099E-01  2.03337741E-01  2.24134008E-01  1.57974130E-01  1.67876775E-01
  1.92165099E-01  1.67876775E-01  1.83702073E-01  2.03337741E-01  2.24134008E-01
Pure Switching                             I                1
Dipole_Data                                R   N=           3
  0.00000000E+00  0.00000000E+00 -1.83423843E-15
Quadrupole_Data                            R   N=           6
 -2.32860433E+00  0.00000000E+00 -2.32860433E+00  0.00000000E+00  0.00000000E+00
 -1.71015032E+00
Octapole_Data                              R   N=          10
  0.00000000E+00  0.00000000E+00  0.00000000E+00  0.00000000E+00 -6.86498376E-16
  0.00000000E+00 -6.86498376E-16  0.00000000E+00  0.00000000E+00 -2.64721676E-15
Hexadecapole_Data                          R   N=          15
 -2.34396099E+00  0.00000000E+00 -7.81320329E-01  0.00000000E+00 -2.34396099E+00
  0.00000000E+00  0.00000000E+00  0.00000000E+00  0.00000000E+00 -1.17701169E+00
  0.00000000E+00 -1.17701169E+00  0.00000000E+00  0.00000000E+00 -4.54412704E+00
