Jobname.Temp
SP        R                             6-31G               
Number of atoms                            I                2
Charge                                     I                0
Multiplicity                               I                1
Number of electrons                        I                2
Number of alpha electrons                  I                1
Number of beta electrons                   I                1
Atomic numbers                             I   N=           2
           1           1
Current cartesian coordinates              R   N=           6
  0.00000000E+00  0.00000000E+00 -1.03934937E+00  0.00000000E+00  0.00000000E+00
  1.03934937E+00
Nuclear charges                            R   N=           2
  1.00000000E+00  1.00000000E+00
Number of basis functions                  I                4
Number of contracted shells                I                4
Number of primitive shells                 I                8
Highest angular momentum                   I                0
Largest degree of contraction              I                3
Shell types                                I   N=           4
           0           0           0           0
Number of primitives per shell             I   N=           4
           3           1           3           1
Shell to atom map                          I   N=           4
           1           1           2           2
Primitive exponents                        R   N=           8
  1.87311370E+01  2.82539370E+00  6.40121700E-01  1.61277800E-01  1.87311370E+01
  2.82539370E+00  6.40121700E-01  1.61277800E-01
Contraction coefficients                   R   N=           8
  3.34945995E-02  2.34726947E-01  8.13757318E-01  1.00000000E+00  3.34945995E-02
  2.34726947E-01  8.13757318E-01  1.00000000E+00
Coordinates of each shell                  R   N=          12
  0.00000000E+00  0.00000000E+00 -1.03934937E+00  0.00000000E+00  0.00000000E+00
 -1.03934937E+00  0.00000000E+00  0.00000000E+00  1.03934937E+00  0.00000000E+00
  0.00000000E+00  1.03934937E+00
Overlap Matrix                             R   N=          10
  1.00000000E+00  6.58292049E-01  1.00000000E+00  1.94418948E-01  3.73111772E-01
  1.00000000E+00  3.73111772E-01  7.05788434E-01  6.58292049E-01  1.00000000E+00
Core Hamiltonian Matrix                    R   N=          10
 -7.38342256E-01 -7.96872492E-01 -8.34302637E-01 -3.70519187E-01 -5.23386783E-01
 -7.38342256E-01 -5.23386783E-01 -6.78593877E-01 -7.96872492E-01 -8.34302637E-01
Orbital Coefficients CCMAN2 Alpha          R   N=          16
 -2.74165060E-01 -3.51882347E-01 -2.74165060E-01 -3.51882347E-01 -1.81255017E-01
 -1.10507772E+00  1.81255017E-01  1.10507772E+00  8.94888673E-01 -6.99686971E-01
  8.94888673E-01 -6.99686971E-01 -9.55012901E-01  1.16877857E+00  9.55012901E-01
 -1.16877857E+00
Orbital Coefficients CCMAN2 Beta           R   N=          16
 -1.81255017E-01 -1.10507772E+00  1.81255017E-01  1.10507772E+00  8.94888673E-01
 -6.99686971E-01  8.94888673E-01 -6.99686971E-01 -9.55012901E-01  1.16877857E+00
  9.55012901E-01 -1.16877857E+00 -2.74165060E-01 -3.51882347E-01 -2.74165060E-01
 -3.51882347E-01
EOMEE transition A Excitation Energies     R   N=           3
  4.62754792E-01  7.34898136E-01  1.09599863E+00
Number of Active Occ                       I                2
Number of Active Vir                       I                6
Alpha Amplitudes                           R   N=           4
  7.05241160E-01  7.05241160E-01  6.58243320E-01  6.58243320E-01
Alpha J Indexes                            I   N=           4
           0           2           2           4
Alpha I Indexes                            I   N=           4
           0           9           1          10
EOMEE transition A Excitation Energies     R   N=           3
  2.17517816E-01  9.85117827E-01  1.11048533E+00
Number of Active Occ                       I                2
Number of Active Vir                       I                6
Alpha Amplitudes                           R   N=          10
  6.98071520E-01  1.06701201E-01 -6.98071520E-01 -1.06701201E-01 -6.98529859E-01
  6.98529859E-01  1.12634669E-01 -6.83836945E-01 -1.12634669E-01  6.83836945E-01
Alpha J Indexes                            I   N=           4
           0           4           6          10
Alpha I Indexes                            I   N=          10
           0           2           9          11           1          10
           0           2           9          11
Number of independent functions            I                4
Alpha MO coefficients                      R   N=          16
 -2.74165060E-01 -3.51882347E-01 -2.74165060E-01 -3.51882347E-01 -1.81255017E-01
 -1.10507772E+00  1.81255017E-01  1.10507772E+00  8.94888673E-01 -6.99686971E-01
  8.94888673E-01 -6.99686971E-01 -9.55012901E-01  1.16877857E+00  9.55012901E-01
 -1.16877857E+00
Alpha Orbital Energies                     R   N=           4
 -5.05918227E-01  1.41512263E-01  9.50343571E-01  1.10868773E+00
Total SCF Density                          R   N=          10
  1.81114631E-01  2.09541581E-01  2.50274931E-01  1.42361327E-01  1.66630419E-01
  1.81114631E-01  1.66630419E-01  1.99365754E-01  2.09541581E-01  2.50274931E-01
Pure Switching                             I                1
Dipole_Data                                R   N=           3
  0.00000000E+00  0.00000000E+00  8.18352529E-15
Quadrupole_Data                            R   N=           6
 -2.42115410E+00  0.00000000E+00 -2.42115410E+00  0.00000000E+00  0.00000000E+00
 -1.72074961E+00
Octapole_Data                              R   N=          10
  0.00000000E+00  0.00000000E+00  0.00000000E+00  0.00000000E+00  2.22247676E-15
  0.00000000E+00  2.22247676E-15  0.00000000E+00  0.00000000E+00  9.08746052E-15
Hexadecapole_Data                          R   N=          15
 -2.49148534E+00  0.00000000E+00 -8.30495113E-01  0.00000000E+00 -2.49148534E+00
  0.00000000E+00  0.00000000E+00  0.00000000E+00  0.00000000E+00 -1.34083424E+00
  0.00000000E+00 -1.34083424E+00  0.00000000E+00  0.00000000E+00 -5.31652447E+00
