Jobname.Temp
SP        R                             STO-3G              
Number of atoms                            I                4
Charge                                     I                0
Multiplicity                               I                1
Number of electrons                        I                4
Number of alpha electrons                  I                2
Number of beta electrons                   I                2
Atomic numbers                             I   N=           4
           1           1           1           1
Current cartesian coordinates              R   N=          12
  2.22042820E+00 -1.41729459E+00 -8.19708305E-16  2.22042820E+00  1.41729459E+00
  1.91220738E-15 -2.22042820E+00 -1.41729459E+00 -1.91220738E-15 -2.22042820E+00
  1.41729459E+00  8.19708305E-16
Nuclear charges                            R   N=           4
  1.00000000E+00  1.00000000E+00  1.00000000E+00  1.00000000E+00
Number of basis functions                  I                4
Number of contracted shells                I                4
Number of primitive shells                 I               12
Highest angular momentum                   I                0
Largest degree of contraction              I                3
Shell types                                I   N=           4
           0           0           0           0
Number of primitives per shell             I   N=           4
           3           3           3           3
Shell to atom map                          I   N=           4
           1           2           3           4
Primitive exponents                        R   N=          12
  3.42525091E+00  6.23913730E-01  1.68855400E-01  3.42525091E+00  6.23913730E-01
  1.68855400E-01  3.42525091E+00  6.23913730E-01  1.68855400E-01  3.42525091E+00
  6.23913730E-01  1.68855400E-01
Contraction coefficients                   R   N=          12
  1.54328971E-01  5.35328142E-01  4.44634542E-01  1.54328971E-01  5.35328142E-01
  4.44634542E-01  1.54328971E-01  5.35328142E-01  4.44634542E-01  1.54328971E-01
  5.35328142E-01  4.44634542E-01
Coordinates of each shell                  R   N=          12
  2.22042820E+00 -1.41729459E+00 -8.19708305E-16  2.22042820E+00  1.41729459E+00
  1.91220738E-15 -2.22042820E+00 -1.41729459E+00 -1.91220738E-15 -2.22042820E+00
  1.41729459E+00  8.19708305E-16
Overlap Matrix                             R   N=          10
  1.00000000E+00  2.56786336E-01  1.00000000E+00  6.52581648E-02  2.82852225E-02
  1.00000000E+00  2.82852225E-02  6.52581648E-02  2.56786336E-01  1.00000000E+00
Core Hamiltonian Matrix                    R   N=          10
 -1.23291868E+00 -4.32918558E-01 -1.23291868E+00 -1.11217335E-01 -5.25744377E-02
 -1.23291868E+00 -5.25744377E-02 -1.11217335E-01 -4.32918558E-01 -1.23291868E+00
Orbital Coefficients CCMAN2 Alpha          R   N=          16
 -4.30278941E-01 -4.30278941E-01 -4.30278941E-01 -4.30278941E-01 -4.63590780E-01
 -4.63590780E-01  4.63590780E-01  4.63590780E-01 -5.94968026E-01  5.94968026E-01
  5.94968026E-01 -5.94968026E-01  5.66070808E-01 -5.66070808E-01  5.66070808E-01
 -5.66070808E-01
Orbital Coefficients CCMAN2 Beta           R   N=          16
 -4.63590780E-01 -4.63590780E-01  4.63590780E-01  4.63590780E-01 -5.94968026E-01
  5.94968026E-01  5.94968026E-01 -5.94968026E-01  5.66070808E-01 -5.66070808E-01
  5.66070808E-01 -5.66070808E-01 -4.30278941E-01 -4.30278941E-01 -4.30278941E-01
 -4.30278941E-01
EOMEE transition Ag Excitation Energies    R   N=           1
  2.04981994E-01
Number of Active Occ                       I                4
Number of Active Vir                       I                4
Alpha Amplitudes                           R   N=           0
Alpha J Indexes                            I   N=           2
           0           0
Alpha I Indexes                            I   N=           0
EOMEE transition B1g Excitation Energies   R   N=           1
  4.89567564E-01
Number of Active Occ                       I                4
Number of Active Vir                       I                4
Alpha Amplitudes                           R   N=           2
  7.07106781E-01  7.07106781E-01
Alpha J Indexes                            I   N=           2
           0           2
Alpha I Indexes                            I   N=           2
           5          15
EOMEE transition B2u Excitation Energies   R   N=           1
  5.50961479E-01
Number of Active Occ                       I                4
Number of Active Vir                       I                4
Alpha Amplitudes                           R   N=           4
 -5.26570152E-01 -4.71936304E-01 -5.26570152E-01 -4.71936304E-01
Alpha J Indexes                            I   N=           2
           0           4
Alpha I Indexes                            I   N=           4
           1           4          11          14
EOMEE transition B3u Excitation Energies   R   N=           1
  6.65112907E-01
Number of Active Occ                       I                4
Number of Active Vir                       I                4
Alpha Amplitudes                           R   N=           0
Alpha J Indexes                            I   N=           2
           0           0
Alpha I Indexes                            I   N=           0
EOMEE transition Ag Excitation Energies    R   N=           1
  6.74886855E-01
Number of Active Occ                       I                4
Number of Active Vir                       I                4
Alpha Amplitudes                           R   N=           0
Alpha J Indexes                            I   N=           2
           0           0
Alpha I Indexes                            I   N=           0
EOMEE transition B1g Excitation Energies   R   N=           1
  9.74506292E-02
Number of Active Occ                       I                4
Number of Active Vir                       I                4
Alpha Amplitudes                           R   N=           4
  4.21985455E-01 -5.67387236E-01 -4.21985455E-01  5.67387236E-01
Alpha J Indexes                            I   N=           2
           0           4
Alpha I Indexes                            I   N=           4
           0           5          10          15
EOMEE transition B2u Excitation Energies   R   N=           1
  1.08990662E-01
Number of Active Occ                       I                4
Number of Active Vir                       I                4
Alpha Amplitudes                           R   N=           4
  4.91756512E-01 -5.08109764E-01 -4.91756512E-01  5.08109764E-01
Alpha J Indexes                            I   N=           2
           0           4
Alpha I Indexes                            I   N=           4
           1           4          11          14
EOMEE transition B3u Excitation Energies   R   N=           1
  2.08221286E-01
Number of Active Occ                       I                4
Number of Active Vir                       I                4
Alpha Amplitudes                           R   N=           0
Alpha J Indexes                            I   N=           2
           0           0
Alpha I Indexes                            I   N=           0
Number of independent functions            I                4
Alpha MO coefficients                      R   N=          16
 -4.30278941E-01 -4.30278941E-01 -4.30278941E-01 -4.30278941E-01 -4.63590780E-01
 -4.63590780E-01  4.63590780E-01  4.63590780E-01  5.66070808E-01 -5.66070808E-01
  5.66070808E-01 -5.66070808E-01 -5.94968026E-01  5.94968026E-01  5.94968026E-01
 -5.94968026E-01
Alpha Orbital Energies                     R   N=           4
 -3.87037776E-01 -3.15985389E-01  1.96826388E-01  2.58684130E-01
Total SCF Density                          R   N=          10
  8.69804696E-01  5.21761313E-01  8.69804696E-01 -3.84584657E-02 -4.51169335E-02
  8.69804696E-01 -4.51169335E-02 -3.84584657E-02  5.21761313E-01  8.69804696E-01
Pure Switching                             I                1
Dipole_Data                                R   N=           3
  1.12876211E-14 -3.58061033E-16  9.39883262E-31
Quadrupole_Data                            R   N=           6
 -3.76552097E+00 -1.13759062E-14 -2.52043131E+00 -2.12963615E-17  1.11655930E-15
 -3.67895423E+00
Octapole_Data                              R   N=          10
  2.33903332E-14 -2.29892492E-15  7.98116098E-15 -1.06716317E-15  2.31610825E-30
  4.57957768E-30  1.00013765E-30  2.13357769E-15 -1.05200873E-16  1.54407217E-30
Hexadecapole_Data                          R   N=          15
 -3.38469118E+01 -1.63237924E-14 -6.30627862E+00 -1.33730877E-14 -1.27775202E+01
 -3.80282618E-15 -1.70229672E-16 -8.71531250E-16 -4.32412971E-15 -6.12965122E+00
 -1.52389266E-15 -2.76362562E+00 -3.77056059E-15 -5.03933315E-15 -3.06215061E+00
